 Gaussian 16, Revision C.01,
 Gaussian 16:  ES64L-G16RevC.01  3-Jul-2019

 ---------------------------------------------------------
 #P b2plypd3/cc-pvtz # SCF=(xqc) # POpt=() # int=ultrafine
 ---------------------------------------------------------

 --------
 comment:
 --------
 Symbolic Z-matrix:
 Charge =  0 Multiplicity = 2

 SCF Done:  E(UB2PLYPD3) =  -691.992897734     A.U. after   20 cycles
 E2(B2PLYPD3) =    -0.3602144396D+00 E(B2PLYPD3) =    -0.69235311217378D+03
 SCF Done:  E(UB2PLYPD3) =  -691.993827782     A.U. after   17 cycles
 E2(B2PLYPD3) =    -0.3595603423D+00 E(B2PLYPD3) =    -0.69235338812426D+03
 SCF Done:  E(UB2PLYPD3) =  -691.991030608     A.U. after   23 cycles
 E2(B2PLYPD3) =    -0.3604874262D+00 E(B2PLYPD3) =    -0.69235151803421D+03
 SCF Done:  E(UB2PLYPD3) =  -691.994893250     A.U. after   17 cycles
 E2(B2PLYPD3) =    -0.3584923520D+00 E(B2PLYPD3) =    -0.69235338560185D+03
 SCF Done:  E(UB2PLYPD3) =  -691.994405301     A.U. after    9 cycles
 E2(B2PLYPD3) =    -0.3590418064D+00 E(B2PLYPD3) =    -0.69235344710691D+03
 SCF Done:  E(UB2PLYPD3) =  -691.994558496     A.U. after   15 cycles
 E2(B2PLYPD3) =    -0.3590147881D+00 E(B2PLYPD3) =    -0.69235357328361D+03
 SCF Done:  E(UB2PLYPD3) =  -691.994826311     A.U. after   16 cycles
 E2(B2PLYPD3) =    -0.3588182715D+00 E(B2PLYPD3) =    -0.69235364458294D+03
 SCF Done:  E(UB2PLYPD3) =  -691.994707870     A.U. after   16 cycles
 E2(B2PLYPD3) =    -0.3589723819D+00 E(B2PLYPD3) =    -0.69235368025188D+03
 SCF Done:  E(UB2PLYPD3) =  -691.994235422     A.U. after   16 cycles
 E2(B2PLYPD3) =    -0.3594757702D+00 E(B2PLYPD3) =    -0.69235371119264D+03
 SCF Done:  E(UB2PLYPD3) =  -691.994177600     A.U. after   15 cycles
 E2(B2PLYPD3) =    -0.3595518176D+00 E(B2PLYPD3) =    -0.69235372941719D+03
 SCF Done:  E(UB2PLYPD3) =  -691.994153878     A.U. after   14 cycles
 E2(B2PLYPD3) =    -0.3595793206D+00 E(B2PLYPD3) =    -0.69235373319880D+03
 SCF Done:  E(UB2PLYPD3) =  -691.994138581     A.U. after   15 cycles
 E2(B2PLYPD3) =    -0.3595971121D+00 E(B2PLYPD3) =    -0.69235373569289D+03
 SCF Done:  E(UB2PLYPD3) =  -691.994123819     A.U. after   13 cycles
 E2(B2PLYPD3) =    -0.3596127950D+00 E(B2PLYPD3) =    -0.69235373661396D+03
 SCF Done:  E(UB2PLYPD3) =  -691.994137743     A.U. after   13 cycles
 E2(B2PLYPD3) =    -0.3595977460D+00 E(B2PLYPD3) =    -0.69235373548921D+03
 SCF Done:  E(UB2PLYPD3) =  -691.994135675     A.U. after   13 cycles
 E2(B2PLYPD3) =    -0.3596015712D+00 E(B2PLYPD3) =    -0.69235373724572D+03
 SCF Done:  E(UB2PLYPD3) =  -691.994129863     A.U. after   13 cycles
 E2(B2PLYPD3) =    -0.3596074198D+00 E(B2PLYPD3) =    -0.69235373728327D+03
 Optimization completed.
    -- Stationary point found.

                         Standard orientation:
 ---------------------------------------------------------------------
 Center     Atomic      Atomic             Coordinates (Angstroms)
 Number     Number       Type             X           Y           Z
 ---------------------------------------------------------------------
      1          6           0        0.607080   -0.754033   -0.432129
      2          6           0        0.795652   -1.593723    0.794298
      3          6           0        0.606580    0.754123   -0.432110
      4          1           0        0.081892   -1.240600   -1.245650
      5          8           0        1.735212    0.000352   -0.887015
      6          6           0        0.794783    1.593921    0.794310
      7          1           0        0.081041    1.240299   -1.245608
      8          1           0       -0.165909   -1.955604    1.152447
      9          1           0        1.415705   -2.454544    0.544978
     10          1           0        1.287300   -1.045606    1.591752
     11          1           0        1.286707    1.046005    1.591735
     12          1           0       -0.166956    1.955216    1.152574
     13          1           0        1.414355    2.455083    0.545007
     14         17           0       -2.114141   -0.000282   -0.078666
 ---------------------------------------------------------------------

 The electronic state is 2-A.
 Alpha  occ. eigenvalues -- -102.96011 -19.74527 -10.68776 -10.68732 -10.61590
 Alpha  occ. eigenvalues --  -10.61589  -9.94668  -7.59968  -7.57797  -7.57796
 Alpha  occ. eigenvalues --   -1.22392  -0.95262  -0.87220  -0.86301  -0.74062
 Alpha  occ. eigenvalues --   -0.67350  -0.60448  -0.53483  -0.51869  -0.50763
 Alpha  occ. eigenvalues --   -0.47529  -0.46963  -0.45476  -0.43892  -0.42524
 Alpha  occ. eigenvalues --   -0.40158  -0.39981  -0.35564  -0.34720
 Alpha virt. eigenvalues --    0.08187   0.10060   0.11074   0.13226   0.14901
 Alpha virt. eigenvalues --    0.15105   0.15112   0.18202   0.19608   0.21326
 Alpha virt. eigenvalues --    0.21662   0.25283   0.26732   0.28985   0.31261

  Beta  occ. eigenvalues -- -102.95195 -19.74339 -10.68662 -10.68621 -10.61592
  Beta  occ. eigenvalues --  -10.61591  -9.93871  -7.57360  -7.57359  -7.56832
  Beta  occ. eigenvalues --   -1.21846  -0.88629  -0.86307  -0.86262  -0.73202
  Beta  occ. eigenvalues --   -0.67274  -0.60164  -0.53104  -0.51746  -0.49836
  Beta  occ. eigenvalues --   -0.47381  -0.46939  -0.43831  -0.42423  -0.38573
  Beta  occ. eigenvalues --   -0.38387  -0.35605  -0.34464
  Beta virt. eigenvalues --   -0.14339   0.08258   0.10117   0.11106   0.13432
  Beta virt. eigenvalues --    0.14959   0.15137   0.15203   0.18429   0.20076
  Beta virt. eigenvalues --    0.21336   0.21799   0.25326   0.26886   0.29249

 Mulliken charges and spin densities:
               1          2
     1  C    0.021873   0.022185
     2  C   -0.276473   0.002564
     3  C    0.021786   0.022148
     4  H    0.145414  -0.000644
     5  O   -0.340183   0.053077
     6  C   -0.276468   0.002564
     7  H    0.145451  -0.000642
     8  H    0.105205  -0.001419
     9  H    0.112147  -0.000051
    10  H    0.101543   0.000128
    11  H    0.101542   0.000128
    12  H    0.105206  -0.001421
    13  H    0.112155  -0.000053
    14  Cl  -0.079196   0.901436
 Sum of Mulliken charges =  -0.00000   1.00000

 Dipole moment (field-independent basis, Debye):
    X=             -0.6019    Y=             -0.0004    Z=              0.9291  Tot=              1.1070
 Quadrupole moment (field-independent basis, Debye-Ang):
   XX=            -49.2507   YY=            -41.2176   ZZ=            -44.6845
   XY=             -0.0022   XZ=              2.5418   YZ=              0.0008

 Normal termination of Gaussian 16 at Tue Oct  8 15:00:06 2024.
