 Gaussian 16, Revision C.01,
 Gaussian 16:  ES64L-G16RevC.01  3-Jul-2019

 ----------------------------------------------------------------------
 #P b2plypd3/cc-pvtz # SCF=(xqc) # POpt=(CALCFC,TS,NOEIGEN,MAXCYCLES=60
 ) # int=ultrafine
 ----------------------------------------------------------------------

 --------
 comment:
 --------
 Symbolic Z-matrix:
 Charge =  0 Multiplicity = 2

 SCF Done:  E(UB2PLYPD3) =  -691.993423412     A.U. after   33 cycles
 SCF Done:  E(UB2PLYPD3) =  -691.995183100     a.u. after    8 cycles
 E2(B2PLYPD3) =    -0.3545734174D+00 E(B2PLYPD3) =    -0.69234975651792D+03
 E2(B2PLYPD3) =    -0.3545734174D+00 E(B2PLYPD3) =    -0.69234975651792D+03

  Exact polarizability:      81.699      -4.541      60.734      -1.686      -1.257      52.662
 Approx polarizability:      72.343      -3.340      66.676       1.262       0.592      64.886

 SCF Done:  E(UB2PLYPD3) =  -691.995030915     A.U. after   32 cycles
 E2(B2PLYPD3) =    -0.3549888901D+00 E(B2PLYPD3) =    -0.69235001980505D+03
 SCF Done:  E(UB2PLYPD3) =  -691.994823343     A.U. after   24 cycles
 E2(B2PLYPD3) =    -0.3552040952D+00 E(B2PLYPD3) =    -0.69235002743795D+03
 SCF Done:  E(UB2PLYPD3) =  -691.994872270     A.U. after   23 cycles
 E2(B2PLYPD3) =    -0.3551548138D+00 E(B2PLYPD3) =    -0.69235002708351D+03
 SCF Done:  E(UB2PLYPD3) =  -691.994886269     A.U. after   22 cycles
 E2(B2PLYPD3) =    -0.3551408315D+00 E(B2PLYPD3) =    -0.69235002709999D+03
 SCF Done:  E(UB2PLYPD3) =  -691.994879831     A.U. after   21 cycles
 E2(B2PLYPD3) =    -0.3551472845D+00 E(B2PLYPD3) =    -0.69235002711595D+03
 Optimization completed.
    -- Stationary point found.

                         Standard orientation:
 ---------------------------------------------------------------------
 Center     Atomic      Atomic             Coordinates (Angstroms)
 Number     Number       Type             X           Y           Z
 ---------------------------------------------------------------------
      1          6           0        1.469111   -0.691319    0.354733
      2          6           0        2.902636   -0.360003    0.063764
      3          6           0        0.365340    0.275028    0.290451
      4          1           0        1.326769   -1.538849    1.018705
      5          8           0        0.554598   -0.691111   -0.754538
      6          6           0        0.503821    1.723403   -0.071664
      7          1           0       -0.490596    0.053795    0.929810
      8          1           0        2.991672    0.488036   -0.608495
      9          1           0        3.431992   -0.132315    0.989340
     10          1           0        3.393581   -1.213575   -0.402421
     11          1           0       -0.379176    2.056533   -0.615180
     12          1           0        0.592775    2.329844    0.829900
     13          1           0        1.372855    1.897611   -0.699129
     14         17           0       -2.830712   -0.240873    0.045298
 ---------------------------------------------------------------------

 The electronic state is 2-A.
 Alpha  occ. eigenvalues -- -102.97331 -19.73161 -10.67389 -10.67232 -10.61309
 Alpha  occ. eigenvalues --  -10.61274  -9.95940  -7.61356  -7.59034  -7.59031
 Alpha  occ. eigenvalues --   -1.20931  -0.96077  -0.86777  -0.85580  -0.73482
 Alpha  occ. eigenvalues --   -0.66347  -0.59812  -0.52636  -0.50718  -0.49522
 Alpha  occ. eigenvalues --   -0.47924  -0.46773  -0.46107  -0.42592  -0.41859
 Alpha  occ. eigenvalues --   -0.40979  -0.40622  -0.35586  -0.33859
 Alpha virt. eigenvalues --    0.08003   0.10199   0.11187   0.14265   0.14622
 Alpha virt. eigenvalues --    0.14882   0.16318   0.18210   0.18684   0.21626
 Alpha virt. eigenvalues --    0.21957   0.25489   0.27627   0.28910   0.31362

  Beta  occ. eigenvalues -- -102.96478 -19.73160 -10.67336 -10.67219 -10.61306
  Beta  occ. eigenvalues --  -10.61275  -9.95108  -7.58582  -7.58579  -7.58050
  Beta  occ. eigenvalues --   -1.20897  -0.88165  -0.86727  -0.85514  -0.73393
  Beta  occ. eigenvalues --   -0.66180  -0.59565  -0.52604  -0.50670  -0.49486
  Beta  occ. eigenvalues --   -0.46879  -0.46641  -0.42733  -0.41707  -0.39234
  Beta  occ. eigenvalues --   -0.39135  -0.35564  -0.33821
  Beta virt. eigenvalues --   -0.15180   0.08038   0.10252   0.11257   0.14273
  Beta virt. eigenvalues --    0.14680   0.14914   0.16469   0.18305   0.18971
  Beta virt. eigenvalues --    0.21652   0.21985   0.25580   0.27712   0.29026

 Mulliken charges and spin densities:
               1          2
     1  C    0.072441   0.004720
     2  C   -0.286984   0.001136
     3  C    0.026873   0.014112
     4  H    0.107829  -0.000235
     5  O   -0.366595   0.001002
     6  C   -0.278117   0.000604
     7  H    0.118991  -0.006138
     8  H    0.102417  -0.000025
     9  H    0.092849  -0.000073
    10  H    0.109701   0.000589
    11  H    0.111554  -0.000117
    12  H    0.093130  -0.000025
    13  H    0.102011   0.000532
    14  Cl  -0.006099   0.983918
 Sum of Mulliken charges =  -0.00000   1.00000

 Dipole moment (field-independent basis, Debye):
    X=              1.0642    Y=              0.9935    Z=              1.6426  Tot=              2.1949
 Quadrupole moment (field-independent basis, Debye-Ang):
   XX=            -39.9937   YY=            -43.9937   ZZ=            -45.9037
   XY=             -0.7223   XZ=              0.7415   YZ=             -1.7596

 Normal termination of Gaussian 16 at Tue Oct  8 15:04:08 2024.
