 Gaussian 16, Revision C.01,
 Gaussian 16:  ES64L-G16RevC.01  3-Jul-2019

 ---------------------------------------------------------
 #P b2plypd3/cc-pvtz # SCF=(xqc) # POpt=() # int=ultrafine
 ---------------------------------------------------------

 --------
 comment:
 --------
 Symbolic Z-matrix:
 Charge =  0 Multiplicity = 2

 SCF Done:  E(UB2PLYPD3) =  -691.992865762     A.U. after   15 cycles
 E2(B2PLYPD3) =    -0.3616326493D+00 E(B2PLYPD3) =    -0.69235449841086D+03
 SCF Done:  E(UB2PLYPD3) =  -691.992854414     A.U. after    7 cycles
 E2(B2PLYPD3) =    -0.3616447699D+00 E(B2PLYPD3) =    -0.69235449918433D+03
 SCF Done:  E(UB2PLYPD3) =  -691.992838549     A.U. after    8 cycles
 E2(B2PLYPD3) =    -0.3616613999D+00 E(B2PLYPD3) =    -0.69235449994927D+03
 SCF Done:  E(UB2PLYPD3) =  -691.992805274     A.U. after    8 cycles
 E2(B2PLYPD3) =    -0.3616953092D+00 E(B2PLYPD3) =    -0.69235450058314D+03
 Optimization completed.
    -- Stationary point found.

                         Standard orientation:
 ---------------------------------------------------------------------
 Center     Atomic      Atomic             Coordinates (Angstroms)
 Number     Number       Type             X           Y           Z
 ---------------------------------------------------------------------
      1          6           0       -1.131793   -0.780973   -0.020143
      2          6           0       -2.516736   -0.881577   -0.579531
      3          6           0       -0.417743    0.467444    0.152402
      4          1           0       -0.545633   -1.692029   -0.020428
      5          8           0       -1.016387   -0.043532    1.269641
      6          6           0       -0.585070    1.865439   -0.312057
      7          1           0        1.470487    0.014342    0.058734
      8          1           0       -3.041613    0.067402   -0.503654
      9          1           0       -3.090247   -1.640420   -0.048730
     10          1           0       -2.468574   -1.170627   -1.629605
     11          1           0       -0.183131    2.554637    0.428334
     12          1           0       -0.057476    2.017197   -1.250829
     13          1           0       -1.642055    2.105955   -0.460988
     14         17           0        2.682200   -0.348835   -0.127882
 ---------------------------------------------------------------------

 The electronic state is 2-A.
 Alpha  occ. eigenvalues -- -102.91259 -19.77149 -10.69867 -10.69626 -10.63532
 Alpha  occ. eigenvalues --  -10.62883  -9.90336  -7.54409  -7.53758  -7.53756
 Alpha  occ. eigenvalues --   -1.25017  -0.94215  -0.88795  -0.87694  -0.75332
 Alpha  occ. eigenvalues --   -0.66785  -0.60472  -0.55299  -0.53366  -0.51330
 Alpha  occ. eigenvalues --   -0.50765  -0.49188  -0.47650  -0.44986  -0.41216
 Alpha  occ. eigenvalues --   -0.38501  -0.37467  -0.37369  -0.27566
 Alpha virt. eigenvalues --    0.06857   0.09874   0.10483   0.12776   0.13337
 Alpha virt. eigenvalues --    0.14201   0.15176   0.15417   0.18421   0.19640
 Alpha virt. eigenvalues --    0.20666   0.22516   0.25374   0.27364   0.27953

  Beta  occ. eigenvalues -- -102.91175 -19.76539 -10.69640 -10.68277 -10.63494
  Beta  occ. eigenvalues --  -10.62876  -9.90251  -7.54103  -7.53710  -7.53708
  Beta  occ. eigenvalues --   -1.23608  -0.93569  -0.88273  -0.86600  -0.74147
  Beta  occ. eigenvalues --   -0.65327  -0.57220  -0.54276  -0.52323  -0.50851
  Beta  occ. eigenvalues --   -0.50056  -0.48643  -0.47240  -0.44364  -0.38018
  Beta  occ. eigenvalues --   -0.37741  -0.37311  -0.37053
  Beta virt. eigenvalues --   -0.01853   0.07035   0.10001   0.10822   0.13108
  Beta virt. eigenvalues --    0.13405   0.14386   0.15481   0.16895   0.19233
  Beta virt. eigenvalues --    0.20892   0.21047   0.23090   0.25545   0.27716

 Mulliken charges and spin densities:
               1          2
     1  C    0.024263  -0.011375
     2  C   -0.275531   0.005785
     3  C    0.077401   0.741777
     4  H    0.139543   0.001136
     5  O   -0.303376   0.137170
     6  C   -0.283331  -0.005976
     7  H    0.198835  -0.004465
     8  H    0.105867  -0.000808
     9  H    0.114524   0.005078
    10  H    0.102619   0.000171
    11  H    0.125793   0.002261
    12  H    0.113422  -0.000227
    13  H    0.101555   0.055589
    14  Cl  -0.241583   0.073884
 Sum of Mulliken charges =  -0.00000   1.00000

 Dipole moment (field-independent basis, Debye):
    X=             -2.8636    Y=              0.4958    Z=             -1.7872  Tot=              3.4118
 Quadrupole moment (field-independent basis, Debye-Ang):
   XX=            -48.0859   YY=            -40.7723   ZZ=            -47.5814
   XY=              1.5835   XZ=              2.7300   YZ=              0.1684

 Normal termination of Gaussian 16 at Mon Oct  7 11:41:10 2024.
