 Gaussian 16, Revision C.01,
 Gaussian 16:  ES64L-G16RevC.01  3-Jul-2019

 ---------------------------------------------------------
 #P b2plypd3/cc-pvtz # SCF=(xqc) # POpt=() # int=ultrafine
 ---------------------------------------------------------

 --------
 comment:
 --------
 Symbolic Z-matrix:
 Charge =  0 Multiplicity = 2

 SCF Done:  E(UB2PLYPD3) =  -691.995133200     A.U. after   16 cycles
 E2(B2PLYPD3) =    -0.3600559520D+00 E(B2PLYPD3) =    -0.69235518915168D+03
 SCF Done:  E(UB2PLYPD3) =  -691.995336438     A.U. after   12 cycles
 E2(B2PLYPD3) =    -0.3601706811D+00 E(B2PLYPD3) =    -0.69235550711920D+03
 SCF Done:  E(UB2PLYPD3) =  -691.995057027     A.U. after   13 cycles
 E2(B2PLYPD3) =    -0.3602157153D+00 E(B2PLYPD3) =    -0.69235527274247D+03
 SCF Done:  E(UB2PLYPD3) =  -691.995696279     A.U. after   11 cycles
 E2(B2PLYPD3) =    -0.3599554961D+00 E(B2PLYPD3) =    -0.69235565177489D+03
 SCF Done:  E(UB2PLYPD3) =  -691.995566777     A.U. after   11 cycles
 E2(B2PLYPD3) =    -0.3600671879D+00 E(B2PLYPD3) =    -0.69235563396503D+03
 SCF Done:  E(UB2PLYPD3) =  -691.995766503     A.U. after   10 cycles
 E2(B2PLYPD3) =    -0.3600614171D+00 E(B2PLYPD3) =    -0.69235582792026D+03
 SCF Done:  E(UB2PLYPD3) =  -691.995752837     A.U. after   11 cycles
 E2(B2PLYPD3) =    -0.3602136735D+00 E(B2PLYPD3) =    -0.69235596651032D+03
 SCF Done:  E(UB2PLYPD3) =  -691.995997459     A.U. after   11 cycles
 E2(B2PLYPD3) =    -0.3601634404D+00 E(B2PLYPD3) =    -0.69235616089934D+03
 SCF Done:  E(UB2PLYPD3) =  -691.995750527     A.U. after   12 cycles
 E2(B2PLYPD3) =    -0.3603346567D+00 E(B2PLYPD3) =    -0.69235608518412D+03
 SCF Done:  E(UB2PLYPD3) =  -691.996124676     A.U. after   11 cycles
 E2(B2PLYPD3) =    -0.3600547031D+00 E(B2PLYPD3) =    -0.69235617937922D+03
 E2(B2PLYPD3) =    -0.3600731215D+00 E(B2PLYPD3) =    -0.69235618618087D+03
 E2(B2PLYPD3) =    -0.3600589286D+00 E(B2PLYPD3) =    -0.69235622411485D+03
 E2(B2PLYPD3) =    -0.3600763895D+00 E(B2PLYPD3) =    -0.69235623731374D+03
 E2(B2PLYPD3) =    -0.3601187012D+00 E(B2PLYPD3) =    -0.69235625107985D+03
 E2(B2PLYPD3) =    -0.3600964168D+00 E(B2PLYPD3) =    -0.69235626675170D+03
 E2(B2PLYPD3) =    -0.3601550202D+00 E(B2PLYPD3) =    -0.69235625796039D+03
 E2(B2PLYPD3) =    -0.3600338261D+00 E(B2PLYPD3) =    -0.69235627667747D+03
 SCF Done:  E(UB2PLYPD3) =  -691.996218499     A.U. after    9 cycles
 E2(B2PLYPD3) =    -0.3600619594D+00 E(B2PLYPD3) =    -0.69235628045808D+03
 SCF Done:  E(UB2PLYPD3) =  -691.996256045     A.U. after    9 cycles
 E2(B2PLYPD3) =    -0.3600258422D+00 E(B2PLYPD3) =    -0.69235628188697D+03
 SCF Done:  E(UB2PLYPD3) =  -691.996258370     A.U. after    9 cycles
 E2(B2PLYPD3) =    -0.3600241646D+00 E(B2PLYPD3) =    -0.69235628253475D+03
 SCF Done:  E(UB2PLYPD3) =  -691.996278062     A.U. after    9 cycles
 E2(B2PLYPD3) =    -0.3600055487D+00 E(B2PLYPD3) =    -0.69235628361041D+03
 SCF Done:  E(UB2PLYPD3) =  -691.996282520     A.U. after    9 cycles
 E2(B2PLYPD3) =    -0.3600013501D+00 E(B2PLYPD3) =    -0.69235628386980D+03
 SCF Done:  E(UB2PLYPD3) =  -691.996280402     A.U. after    7 cycles
 E2(B2PLYPD3) =    -0.3600039715D+00 E(B2PLYPD3) =    -0.69235628437322D+03
 SCF Done:  E(UB2PLYPD3) =  -691.996267978     A.U. after    9 cycles
 E2(B2PLYPD3) =    -0.3600122751D+00 E(B2PLYPD3) =    -0.69235628025278D+03
 SCF Done:  E(UB2PLYPD3) =  -691.996281632     A.U. after    8 cycles
 E2(B2PLYPD3) =    -0.3600029733D+00 E(B2PLYPD3) =    -0.69235628460495D+03
 SCF Done:  E(UB2PLYPD3) =  -691.996277257     A.U. after    9 cycles
 E2(B2PLYPD3) =    -0.3600075007D+00 E(B2PLYPD3) =    -0.69235628475725D+03
 SCF Done:  E(UB2PLYPD3) =  -691.996279254     A.U. after    7 cycles
 E2(B2PLYPD3) =    -0.3600055893D+00 E(B2PLYPD3) =    -0.69235628484316D+03
 Optimization completed.
    -- Stationary point found.

                         Standard orientation:
 ---------------------------------------------------------------------
 Center     Atomic      Atomic             Coordinates (Angstroms)
 Number     Number       Type             X           Y           Z
 ---------------------------------------------------------------------
      1          6           0       -0.807832   -0.729283   -0.406121
      2          6           0       -1.809730   -1.728825    0.082593
      3          6           0       -0.988910    0.702763   -0.341269
      4          1           0       -0.055761   -1.102013   -1.091903
      5          8           0       -0.204693    0.133860    0.653852
      6          6           0       -2.121187    1.609331   -0.051071
      7          1           0        1.585624    0.184134    0.352963
      8          1           0       -2.490127   -1.283938    0.804060
      9          1           0       -1.309040   -2.575852    0.549280
     10          1           0       -2.390952   -2.104609   -0.759747
     11          1           0       -1.756266    2.533741    0.392762
     12          1           0       -2.651242    1.852229   -0.969195
     13          1           0       -2.828065    1.153902    0.649875
     14         17           0        2.817607    0.067507   -0.050805
 ---------------------------------------------------------------------

 The electronic state is 2-A.
 Alpha  occ. eigenvalues -- -102.90136 -19.77528 -10.69793 -10.69700 -10.63417
 Alpha  occ. eigenvalues --  -10.63004  -9.89176  -7.53125  -7.52633  -7.52630
 Alpha  occ. eigenvalues --   -1.24727  -0.92414  -0.88999  -0.87638  -0.75705
 Alpha  occ. eigenvalues --   -0.66963  -0.60167  -0.55268  -0.52836  -0.51566
 Alpha  occ. eigenvalues --   -0.49988  -0.49085  -0.47164  -0.45013  -0.40903
 Alpha  occ. eigenvalues --   -0.38963  -0.36295  -0.36285  -0.27949
 Alpha virt. eigenvalues --    0.06750   0.09948   0.10566   0.12133   0.13265
 Alpha virt. eigenvalues --    0.13697   0.14413   0.16336   0.18618   0.20373
 Alpha virt. eigenvalues --    0.20768   0.22127   0.26788   0.27665   0.28629

  Beta  occ. eigenvalues -- -102.90135 -19.77078 -10.69811 -10.67873 -10.63399
  Beta  occ. eigenvalues --  -10.62984  -9.89175  -7.53122  -7.52633  -7.52629
  Beta  occ. eigenvalues --   -1.23499  -0.92386  -0.88491  -0.86498  -0.74569
  Beta  occ. eigenvalues --   -0.65712  -0.57031  -0.54297  -0.52321  -0.50669
  Beta  occ. eigenvalues --   -0.49808  -0.48516  -0.46852  -0.44423  -0.38435
  Beta  occ. eigenvalues --   -0.38076  -0.36280  -0.36258
  Beta virt. eigenvalues --    0.00434   0.06921   0.10130   0.10773   0.12271
  Beta virt. eigenvalues --    0.13324   0.14000   0.14621   0.16837   0.19007
  Beta virt. eigenvalues --    0.20943   0.21373   0.22784   0.27272   0.27807

 Mulliken charges and spin densities:
               1          2
     1  C    0.037579  -0.024364
     2  C   -0.276796   0.010900
     3  C    0.117852   0.867872
     4  H    0.143414   0.005977
     5  O   -0.352627   0.090466
     6  C   -0.276718  -0.020658
     7  H    0.220849  -0.001156
     8  H    0.105444  -0.001116
     9  H    0.116816   0.004160
    10  H    0.102676  -0.000167
    11  H    0.122066   0.004214
    12  H    0.110054   0.001492
    13  H    0.099423   0.060397
    14  Cl  -0.270030   0.001983
 Sum of Mulliken charges =  -0.00000   1.00000

 Dipole moment (field-independent basis, Debye):
    X=             -4.3062    Y=             -0.5886    Z=             -0.6851  Tot=              4.3999
 Quadrupole moment (field-independent basis, Debye-Ang):
   XX=            -47.5062   YY=            -41.2536   ZZ=            -45.5873
   XY=             -0.6688   XZ=              0.2684   YZ=              0.8491

 Normal termination of Gaussian 16 at Wed Oct  9 11:24:58 2024.
