 Gaussian 16, Revision C.01,
 Gaussian 16:  ES64L-G16RevC.01  3-Jul-2019

 ----------------------------------------------------------------------
 #P b2plypd3/cc-pvtz # SCF=(xqc) # POpt=(CalcFC,TS,NoEigen,MaxCycles=60
 ) # int=ultrafine
 ----------------------------------------------------------------------

 --------
 comment:
 --------
 Symbolic Z-matrix:
 Charge =  0 Multiplicity = 2

 SCF Done:  E(UB2PLYPD3) =  -691.989931870     A.U. after   16 cycles
 E2(B2PLYPD3) =    -0.3654703505D+00 E(B2PLYPD3) =    -0.69235540222075D+03
 E2(B2PLYPD3) =    -0.3654703505D+00 E(B2PLYPD3) =    -0.69235540222075D+03

  Exact polarizability:      92.780      -0.834      64.784      -1.500       0.924      52.733
 Approx polarizability:      88.065      -1.857      70.881      -3.632       1.982      67.812

 SCF Done:  E(UB2PLYPD3) =  -691.989242802     A.U. after   14 cycles
 E2(B2PLYPD3) =    -0.3661613681D+00 E(B2PLYPD3) =    -0.69235540417060D+03
 SCF Done:  E(UB2PLYPD3) =  -691.989640818     A.U. after   14 cycles
 E2(B2PLYPD3) =    -0.3657417465D+00 E(B2PLYPD3) =    -0.69235538256435D+03
 SCF Done:  E(UB2PLYPD3) =  -691.989532793     A.U. after   11 cycles
 E2(B2PLYPD3) =    -0.3658482207D+00 E(B2PLYPD3) =    -0.69235538101402D+03
 SCF Done:  E(UB2PLYPD3) =  -691.989494127     A.U. after   10 cycles
 E2(B2PLYPD3) =    -0.3658866158D+00 E(B2PLYPD3) =    -0.69235538074328D+03
 Optimization completed.
    -- Stationary point found.

                         Standard orientation:
 ---------------------------------------------------------------------
 Center     Atomic      Atomic             Coordinates (Angstroms)
 Number     Number       Type             X           Y           Z
 ---------------------------------------------------------------------
      1          6           0       -1.120009   -0.761808   -0.052651
      2          6           0       -2.525247   -0.710208   -0.560338
      3          6           0       -0.283300    0.409578    0.142421
      4          1           0       -0.609096   -1.714234   -0.116894
      5          8           0       -0.884853   -0.095027    1.258101
      6          6           0       -0.362480    1.840933   -0.253187
      7          1           0        1.110137    0.014738    0.048273
      8          1           0       -2.959019    0.277356   -0.426099
      9          1           0       -3.145567   -1.437170   -0.037992
     10          1           0       -2.539842   -0.957366   -1.621854
     11          1           0        0.117678    2.459402    0.502425
     12          1           0        0.144634    1.993241   -1.202625
     13          1           0       -1.403989    2.154059   -0.347065
     14         17           0        2.477065   -0.394163   -0.148262
 ---------------------------------------------------------------------

 The electronic state is 2-A.
 Alpha  occ. eigenvalues -- -102.89568 -19.78458 -10.71962 -10.70645 -10.64216
 Alpha  occ. eigenvalues --  -10.63601  -9.88481  -7.52848  -7.51859  -7.51856
 Alpha  occ. eigenvalues --   -1.26488  -0.91927  -0.89560  -0.88470  -0.76598
 Alpha  occ. eigenvalues --   -0.68201  -0.62876  -0.56291  -0.54466  -0.52086
 Alpha  occ. eigenvalues --   -0.50032  -0.49548  -0.47300  -0.45942  -0.41881
 Alpha  occ. eigenvalues --   -0.39382  -0.35743  -0.35668  -0.29282
 Alpha virt. eigenvalues --    0.06527   0.09607   0.10463   0.12301   0.13026
 Alpha virt. eigenvalues --    0.13720   0.14841   0.16957   0.17771   0.19871
 Alpha virt. eigenvalues --    0.20649   0.23291   0.25115   0.27327   0.27976

  Beta  occ. eigenvalues -- -102.89253 -19.77866 -10.70725 -10.70631 -10.64163
  Beta  occ. eigenvalues --  -10.63602  -9.88169  -7.51691  -7.51683  -7.51677
  Beta  occ. eigenvalues --   -1.25176  -0.89708  -0.89044  -0.87297  -0.75401
  Beta  occ. eigenvalues --   -0.66668  -0.59416  -0.55360  -0.53337  -0.51622
  Beta  occ. eigenvalues --   -0.49597  -0.48781  -0.45446  -0.45272  -0.38785
  Beta  occ. eigenvalues --   -0.38184  -0.35143  -0.35062
  Beta virt. eigenvalues --   -0.06410   0.06616   0.09694   0.10688   0.12620
  Beta virt. eigenvalues --    0.13093   0.13885   0.15035   0.17547   0.18285
  Beta virt. eigenvalues --    0.20220   0.21491   0.24584   0.25536   0.27630

 Mulliken charges and spin densities:
               1          2
     1  C    0.028348  -0.000128
     2  C   -0.275418   0.001955
     3  C    0.111539   0.533530
     4  H    0.147755  -0.000486
     5  O   -0.291667   0.142011
     6  C   -0.278310   0.012215
     7  H    0.182117  -0.043052
     8  H    0.106379  -0.000459
     9  H    0.117540   0.004756
    10  H    0.106426   0.000352
    11  H    0.129563   0.001673
    12  H    0.119109  -0.001323
    13  H    0.104090   0.039415
    14  Cl  -0.307472   0.309540
 Sum of Mulliken charges =  -0.00000   1.00000

 Dipole moment (field-independent basis, Debye):
    X=             -3.9877    Y=              0.8856    Z=             -1.6570  Tot=              4.4081
 Quadrupole moment (field-independent basis, Debye-Ang):
   XX=            -49.0209   YY=            -40.5559   ZZ=            -47.3798
   XY=              2.2560   XZ=              2.6705   YZ=              0.2988

 Normal termination of Gaussian 16 at Mon Oct  7 15:08:02 2024.
