                         Program Version 6.1.0  -  RELEASE   -
|  1> % MaxCore 10000
|  2> ! PAL8
|  3> ! REVDSD-PBEP86-D4/2021 def2-TZVPP def2-TZVPP/c
|  4> ! Opt
|  5> ! NumFreq
|  6> * xyzfile 0 2 guess.xyz
|  7>
|  8>
|  9>                          ****END OF INPUT****
 Total Charge           Charge          ....    0
 Multiplicity           Mult            ....    2
 Number of Electrons    NEL             ....   57
MP2 TOTAL ENERGY:     -691.908539234 Eh
Dispersion correction           -0.006578699
FINAL SINGLE POINT ENERGY      -691.915117932976
MP2 TOTAL ENERGY:     -691.908665607 Eh
Dispersion correction           -0.006565434
FINAL SINGLE POINT ENERGY      -691.915231041399
MP2 TOTAL ENERGY:     -691.908835684 Eh
Dispersion correction           -0.006527084
FINAL SINGLE POINT ENERGY      -691.915362767987
FINAL SINGLE POINT ENERGY      -691.915441676732
FINAL SINGLE POINT ENERGY      -691.915489011114
MP2 TOTAL ENERGY:     -691.909051651 Eh
Dispersion correction           -0.006440065
FINAL SINGLE POINT ENERGY      -691.915491716325
MP2 TOTAL ENERGY:     -691.909057651 Eh
Dispersion correction           -0.006438809
FINAL SINGLE POINT ENERGY      -691.915496459893
                    ***********************HURRAY********************

CARTESIAN COORDINATES (ANGSTROEM)
---------------------------------
  C     -1.146588   -0.767105   -0.033116
  C     -2.545356   -0.789823   -0.571935
  C     -0.373943    0.446342    0.148340
  H     -0.600378   -1.704838   -0.064614
  O     -0.974179   -0.064144    1.262994
  C     -0.490546    1.862543   -0.283450
  H      1.443266   -0.031956    0.043306
  H     -3.022280    0.184246   -0.467467
  H     -3.146238   -1.532028   -0.043374
  H     -2.527379   -1.060452   -1.630100
  H     -0.048712    2.517951    0.468004
  H      0.029927    2.012605   -1.229110
  H     -1.541813    2.145140   -0.409794
  Cl     2.693392   -0.401026   -0.128162

 Multiplicity           Mult            ....    2
 Number of Electrons    NEL             ....   57
 Basis Dimension        Dim             ....  309

ORBITAL ENERGIES
----------------
                 SPIN UP ORBITALS
  NO   OCC          E(Eh)            E(eV)
   0   1.0000    -103.534056     -2817.3049
   1   1.0000     -20.048607      -545.5503
   2   1.0000     -10.903984      -296.7125
   3   1.0000     -10.897534      -296.5370
   4   1.0000     -10.836030      -294.8634
   5   1.0000     -10.829143      -294.6760
   6   1.0000     -10.121366      -275.4164
   7   1.0000      -7.699245      -209.5071
   8   1.0000      -7.693624      -209.3541
   9   1.0000      -7.693598      -209.3535
  10   1.0000      -1.325115       -36.0582
  11   1.0000      -0.991737       -26.9865
  12   1.0000      -0.944220       -25.6935
  13   1.0000      -0.932413       -25.3723
  14   1.0000      -0.804113       -21.8810
  15   1.0000      -0.714101       -19.4317
  16   1.0000      -0.649800       -17.6820
  17   1.0000      -0.590509       -16.0686
  18   1.0000      -0.568550       -15.4710
  19   1.0000      -0.547023       -14.8852
  20   1.0000      -0.536450       -14.5975
  21   1.0000      -0.524103       -14.2616
  22   1.0000      -0.508153       -13.8275
  23   1.0000      -0.481832       -13.1113
  24   1.0000      -0.446166       -12.1408
  25   1.0000      -0.414183       -11.2705
  26   1.0000      -0.402219       -10.9449
  27   1.0000      -0.401363       -10.9216
  28   1.0000      -0.310669        -8.4537
  29   0.0000       0.091974         2.5027
  30   0.0000       0.122891         3.3440
  31   0.0000       0.129876         3.5341
  32   0.0000       0.148600         4.0436
  33   0.0000       0.157017         4.2727

                 SPIN DOWN ORBITALS
  NO   OCC          E(Eh)            E(eV)
   0   1.0000    -103.532819     -2817.2712
   1   1.0000     -20.042445      -545.3826
   2   1.0000     -10.897934      -296.5479
   3   1.0000     -10.885211      -296.2017
   4   1.0000     -10.835809      -294.8573
   5   1.0000     -10.829064      -294.6738
   6   1.0000     -10.120202      -275.3847
   7   1.0000      -7.694773      -209.3854
   8   1.0000      -7.692942      -209.3356
   9   1.0000      -7.692920      -209.3350
  10   1.0000      -1.309530       -35.6341
  11   1.0000      -0.982334       -26.7307
  12   1.0000      -0.937646       -25.5147
  13   1.0000      -0.919768       -25.0282
  14   1.0000      -0.789941       -21.4954
  15   1.0000      -0.696476       -18.9521
  16   1.0000      -0.608640       -16.5619
  17   1.0000      -0.578730       -15.7480
  18   1.0000      -0.555054       -15.1038
  19   1.0000      -0.540787       -14.7156
  20   1.0000      -0.527591       -14.3565
  21   1.0000      -0.518050       -14.0968
  22   1.0000      -0.503078       -13.6895
  23   1.0000      -0.475231       -12.9317
  24   1.0000      -0.412775       -11.2322
  25   1.0000      -0.405008       -11.0208
  26   1.0000      -0.400121       -10.8878
  27   1.0000      -0.398149       -10.8342
  28   0.0000       0.012111         0.3295
  29   0.0000       0.094263         2.5650
  30   0.0000       0.124567         3.3896
  31   0.0000       0.134050         3.6477
  32   0.0000       0.151863         4.1324

MULLIKEN ATOMIC CHARGES AND SPIN DENSITIES
------------------------------------------
   0 C :    0.083427    0.017328
   1 C :   -0.263117    0.003714
   2 C :    0.030757    0.679420
   3 H :    0.113463    0.001320
   4 O :   -0.286981    0.154051
   5 C :   -0.249783   -0.007143
   6 H :    0.213379    0.005934
   7 H :    0.090171   -0.000792
   8 H :    0.104504    0.004359
   9 H :    0.096151    0.000558
  10 H :    0.119425    0.001662
  11 H :    0.105705    0.001027
  12 H :    0.090791    0.055757
  13 Cl:   -0.247892    0.082805
Sum of atomic charges       :    0.0000000

LOEWDIN ATOMIC CHARGES AND SPIN DENSITIES
-----------------------------------------
   0 C :   -0.112183    0.041557
   1 C :    0.011386    0.007251
   2 C :   -0.192244    0.550357
   3 H :    0.016084   -0.000495
   4 O :    0.237052    0.160164
   5 C :   -0.012298    0.063144
   6 H :   -0.256059    0.075915
   7 H :    0.017763    0.000018
   8 H :    0.019728    0.003088
   9 H :    0.022141    0.000763
  10 H :    0.027641    0.002209
  11 H :    0.025981   -0.000245
  12 H :    0.020500    0.032798
  13 Cl:    0.174509    0.063477

  Mayer bond orders larger than 0.100000
B(  0-C ,  1-C ) :   0.9276 B(  0-C ,  2-C ) :   1.0224 B(  0-C ,  3-H ) :   0.9504
B(  0-C ,  4-O ) :   0.8339 B(  1-C ,  7-H ) :   0.9668 B(  1-C ,  8-H ) :   0.9604
B(  1-C ,  9-H ) :   0.9555 B(  2-C ,  4-O ) :   1.0933 B(  2-C ,  5-C ) :   0.9260
B(  2-C ,  6-H ) :   0.1382 B(  5-C , 10-H ) :   0.9576 B(  5-C , 11-H ) :   0.9591
B(  5-C , 12-H ) :   0.9385 B(  6-H , 13-Cl) :   0.8954

MP2 TOTAL ENERGY:     -691.909039407 Eh
Dispersion correction           -0.006438557
FINAL SINGLE POINT ENERGY      -691.915477963898

DIPOLE MOMENT
-------------

Method             : MP2
Type of density    : Electron Density
Multiplicity       :   2
Level              : Relaxed density
Irrep              :   0
Energy             :     0.0000000000000000 Eh
Basis              : AO
                                X                 Y                 Z
Electronic contribution:     12.128713817      -2.875704658       2.502183985
Nuclear contribution   :    -13.362131225       3.121810353      -3.132421008
                        -----------------------------------------
Total Dipole Moment    :     -1.233417408       0.246105695      -0.630237023
                        -----------------------------------------
Magnitude (a.u.)       :      1.406799638
Magnitude (Debye)      :      3.575800506

VIBRATIONAL FREQUENCIES
-----------------------

Scaling factor for frequencies =  1.000000000  (already applied!)

     0:       0.00 cm**-1
     1:       0.00 cm**-1
     2:       0.00 cm**-1
     3:       0.00 cm**-1
     4:       0.00 cm**-1
     5:       0.00 cm**-1
     6:     -29.21 cm**-1  ***imaginary mode***
     7:      28.70 cm**-1
     8:      62.54 cm**-1
     9:     154.95 cm**-1
    10:     203.04 cm**-1
    11:     210.89 cm**-1
    12:     346.52 cm**-1
    13:     408.20 cm**-1
    14:     504.30 cm**-1
    15:     540.07 cm**-1
    16:     586.89 cm**-1
    17:     693.92 cm**-1
    18:     812.75 cm**-1
    19:     939.55 cm**-1
    20:    1003.60 cm**-1
    21:    1036.98 cm**-1
    22:    1070.95 cm**-1
    23:    1131.99 cm**-1
    24:    1141.95 cm**-1
    25:    1213.00 cm**-1
    26:    1363.03 cm**-1
    27:    1407.68 cm**-1
    28:    1421.35 cm**-1
    29:    1482.25 cm**-1
    30:    1483.47 cm**-1
    31:    1488.77 cm**-1
    32:    1508.65 cm**-1
    33:    1552.32 cm**-1
    34:    2404.17 cm**-1
    35:    3029.25 cm**-1
    36:    3056.45 cm**-1
    37:    3113.44 cm**-1
    38:    3123.01 cm**-1
    39:    3142.44 cm**-1
    40:    3147.47 cm**-1
    41:    3159.93 cm**-1

IR SPECTRUM
-----------

 Mode   freq       eps      Int      T**2         TX        TY        TZ
       cm**-1   L/(mol*cm) km/mol    a.u.
----------------------------------------------------------------------------
  7:     28.70   0.000270    1.37  0.002940  ( 0.049163 -0.016250  0.016076)
  8:     62.54   0.000749    3.78  0.003737  (-0.060858  0.000215  0.005791)
  9:    154.95   0.000122    0.62  0.000246  ( 0.006652  0.000356 -0.014202)
 10:    203.04   0.000325    1.64  0.000499  (-0.020523  0.001262 -0.008746)
 11:    210.89   0.000098    0.50  0.000145  (-0.009828 -0.002999  0.006308)
 12:    346.52   0.001764    8.91  0.001589  (-0.035510 -0.018100  0.000045)
 13:    408.20   0.001215    6.14  0.000929  (-0.004704  0.009950 -0.028418)
 14:    504.30   0.001223    6.18  0.000757  ( 0.023182  0.006520 -0.013303)
 15:    540.07   0.002978   15.05  0.001721  (-0.030115 -0.014183 -0.024755)
 16:    586.89   0.001995   10.08  0.001061  (-0.002261  0.027882 -0.016687)
 17:    693.92   0.003787   19.14  0.001703  ( 0.007887  0.032344  0.024389)
 18:    812.75   0.002621   13.25  0.001006  (-0.028281 -0.009970  0.010355)
 19:    939.55   0.002846   14.38  0.000945  (-0.004879 -0.002510  0.030249)
 20:   1003.60   0.002897   14.64  0.000901  ( 0.008485  0.016694 -0.023451)
 21:   1036.98   0.004205   21.25  0.001265  (-0.026039 -0.023534 -0.005783)
 22:   1070.95   0.001790    9.04  0.000522  (-0.020747 -0.005251 -0.007970)
 23:   1131.99   0.000298    1.51  0.000082  ( 0.004349 -0.003066  0.007344)
 24:   1141.95   0.002680   13.55  0.000732  ( 0.008781 -0.010477 -0.023359)
 25:   1213.00   0.004561   23.05  0.001173  (-0.022681 -0.005502  0.025075)
 26:   1363.03   0.002279   11.52  0.000522  (-0.020007 -0.009371  0.005796)
 27:   1407.68   0.001663    8.40  0.000369  ( 0.011461  0.015173 -0.002665)
 28:   1421.35   0.001395    7.05  0.000306  ( 0.016638 -0.002593  0.004779)
 29:   1482.25   0.000711    3.59  0.000150  (-0.009701  0.004960  0.005570)
 30:   1483.47   0.001325    6.69  0.000279  ( 0.010478  0.011536  0.005981)
 31:   1488.77   0.000162    0.82  0.000034  (-0.002444 -0.001532  0.005062)
 32:   1508.65   0.002511   12.69  0.000519  ( 0.008841 -0.004777 -0.020457)
 33:   1552.32   0.003896   19.69  0.000783  ( 0.007769 -0.012516  0.023794)
 34:   2404.17   0.239849  1212.10  0.031133  (-0.172117  0.036549  0.013138)
 35:   3029.25   0.002542   12.85  0.000262  ( 0.008850 -0.013043  0.003665)
 36:   3056.45   0.002463   12.45  0.000251  (-0.013092 -0.004830 -0.007530)
 37:   3113.44   0.002036   10.29  0.000204  ( 0.012891  0.006153 -0.000067)
 38:   3123.01   0.002213   11.18  0.000221  ( 0.007302  0.004943 -0.011972)
 39:   3142.44   0.000114    0.57  0.000011  ( 0.000620  0.003242 -0.000618)
 40:   3147.47   0.001178    5.95  0.000117  ( 0.001544 -0.003357 -0.010155)
 41:   3159.93   0.004372   22.09  0.000432  (-0.005560  0.019750  0.003285)

--------------------------
THERMOCHEMISTRY AT 298.15K
--------------------------

Temperature         ...   298.15 K
Pressure            ...     1.00 atm
Total Mass          ...   107.56 AMU
Quasi RRHO          ...     True
Cut-Off Frequency   ...     1.00 cm^-1

Throughout the following assumptions are being made:
  (1) The electronic state is orbitally nondegenerate
      but the spin degeneracy is treated
  (2) There are no thermally accessible electronically excited states
  (3) Hindered rotations indicated by low frequency modes are not
      treated as such but are treated as vibrations and this may
      cause some error
  (4) All equations used are the standard statistical mechanics
      equations for an ideal gas
  (5) All vibrations are strictly harmonic

freq.      28.70  E(vib)   ...       0.55
freq.      62.54  E(vib)   ...       0.51
freq.     154.95  E(vib)   ...       0.40
freq.     203.04  E(vib)   ...       0.35
freq.     210.89  E(vib)   ...       0.34
freq.     346.52  E(vib)   ...       0.23
freq.     408.20  E(vib)   ...       0.19
freq.     504.30  E(vib)   ...       0.14
freq.     540.07  E(vib)   ...       0.12
freq.     586.89  E(vib)   ...       0.11
freq.     693.92  E(vib)   ...       0.07
freq.     812.75  E(vib)   ...       0.05
freq.     939.55  E(vib)   ...       0.03
freq.    1003.60  E(vib)   ...       0.02
freq.    1036.98  E(vib)   ...       0.02
freq.    1070.95  E(vib)   ...       0.02
freq.    1131.99  E(vib)   ...       0.01
freq.    1141.95  E(vib)   ...       0.01
freq.    1213.00  E(vib)   ...       0.01
freq.    1363.03  E(vib)   ...       0.01
freq.    1407.68  E(vib)   ...       0.00
freq.    1421.35  E(vib)   ...       0.00
freq.    1482.25  E(vib)   ...       0.00
freq.    1483.47  E(vib)   ...       0.00
freq.    1488.77  E(vib)   ...       0.00
freq.    1508.65  E(vib)   ...       0.00
freq.    1552.32  E(vib)   ...       0.00
freq.    2404.17  E(vib)   ...       0.00
freq.    3029.25  E(vib)   ...       0.00
freq.    3056.45  E(vib)   ...       0.00
freq.    3113.44  E(vib)   ...       0.00
freq.    3123.01  E(vib)   ...       0.00
freq.    3142.44  E(vib)   ...       0.00
freq.    3147.47  E(vib)   ...       0.00
freq.    3159.93  E(vib)   ...       0.00

------------
INNER ENERGY
------------

The inner energy is: U= E(el) + E(ZPE) + E(vib) + E(rot) + E(trans)
    E(el)   - is the total energy from the electronic structure calculation
              = E(kin-el) + E(nuc-el) + E(el-el) + E(nuc-nuc)
    E(ZPE)  - the the zero temperature vibrational energy from the frequency calculation
    E(vib)  - the the finite temperature correction to E(ZPE) due to population
              of excited vibrational states
    E(rot)  - is the rotational thermal energy
    E(trans)- is the translational thermal energy

Summary of contributions to the inner energy U:
Electronic energy                ...   -691.91549726 Eh
Zero point energy                ...      0.10929383 Eh      68.58 kcal/mol
Thermal vibrational correction   ...      0.00511382 Eh       3.21 kcal/mol
Thermal rotational correction    ...      0.00141627 Eh       0.89 kcal/mol
Thermal translational correction ...      0.00141627 Eh       0.89 kcal/mol
-----------------------------------------------------------------------
Total thermal energy                   -691.79825707 Eh

Summary of corrections to the electronic energy:
(perhaps to be used in another calculation)
Total thermal correction                  0.00794636 Eh       4.99 kcal/mol
Non-thermal (ZPE) correction              0.10929383 Eh      68.58 kcal/mol
-----------------------------------------------------------------------
Total correction                          0.11724019 Eh      73.57 kcal/mol

--------
ENTHALPY
--------

The enthalpy is H = U + kB*T
                kB is Boltzmann's constant
Total thermal energy              ...   -691.79825707 Eh
Thermal Enthalpy correction       ...      0.00094421 Eh       0.59 kcal/mol
-----------------------------------------------------------------------
Total Enthalpy                    ...   -691.79731286 Eh

Note: Only C1 symmetry has been detected, increase convergence thresholds
      if your molecule has a higher symmetry. Symmetry factor of 1.0 is
      used for the rotational entropy correction.

Note: Rotational entropy computed according to Herzberg
Infrared and Raman Spectra, Chapter V,1, Van Nostrand Reinhold, 1945
Point Group:  C1, Symmetry Number:   1
Rotational constants in cm-1:     0.138930     0.038746     0.034778

Vibrational entropy computed according to the QRRHO of S. Grimme
Chem.Eur.J. 2012 18 9955 using a reference frequency of 100.0 cm-1

-------
ENTROPY
-------

The entropy contributions are T*S = T*(S(el)+S(vib)+S(rot)+S(trans))
     S(el)   - electronic entropy
     S(vib)  - vibrational entropy
     S(rot)  - rotational entropy
     S(trans)- translational entropy
The entropies will be listed as multiplied by the temperature to get
units of energy

Electronic entropy                ...      0.00065446 Eh      0.41 kcal/mol
Vibrational entropy               ...      0.00914051 Eh      5.74 kcal/mol
Rotational entropy                ...      0.01356290 Eh      8.51 kcal/mol
Translational entropy             ...      0.01897446 Eh     11.91 kcal/mol
-----------------------------------------------------------------------
Final entropy term                ...      0.04233233 Eh     26.56 kcal/mol

In case the symmetry of your molecule has not been determined correctly
or in case you have a reason to use a different symmetry number we print
out the resulting rotational entropy values for sn=1,12:

 non-linear molecules -----------------------------------
|  sn= 1 | S(rot)=       0.01356290 Eh      8.51 kcal/mol|
|  sn= 2 | S(rot)=       0.01290845 Eh      8.10 kcal/mol|
|  sn= 3 | S(rot)=       0.01252562 Eh      7.86 kcal/mol|
|  sn= 4 | S(rot)=       0.01225399 Eh      7.69 kcal/mol|
|  sn= 5 | S(rot)=       0.01204330 Eh      7.56 kcal/mol|
|  sn= 6 | S(rot)=       0.01187116 Eh      7.45 kcal/mol|
|  sn= 7 | S(rot)=       0.01172561 Eh      7.36 kcal/mol|
|  sn= 8 | S(rot)=       0.01159953 Eh      7.28 kcal/mol|
|  sn= 9 | S(rot)=       0.01148833 Eh      7.21 kcal/mol|
|  sn=10 | S(rot)=       0.01138885 Eh      7.15 kcal/mol|
|  sn=11 | S(rot)=       0.01129886 Eh      7.09 kcal/mol|
|  sn=12 | S(rot)=       0.01121670 Eh      7.04 kcal/mol|
 linear molecules ---------------------------------------
|  Dinfh | S(rot)=       0.00849711 Eh      5.33 kcal/mol|
|  Cinfv | S(rot)=       0.00915156 Eh      5.74 kcal/mol|
 --------------------------------------------------------

-------------------
GIBBS FREE ENERGY
-------------------

The Gibbs free energy is G = H - T*S

                             ****ORCA TERMINATED NORMALLY****
TOTAL RUN TIME: 0 days 0 hours 34 minutes 36 seconds 726 msec
