                         Program Version 6.1.0  -  RELEASE   -
|  1> % MaxCore 10000
|  2> ! PAL8
|  3> ! REVDSD-PBEP86-D4/2021 def2-TZVPP def2-TZVPP/c
|  4> ! Opt
|  5> ! NumFreq
|  6> * xyzfile 0 2 guess.xyz
|  7>
|  8>                          ****END OF INPUT****
 Total Charge           Charge          ....    0
 Multiplicity           Mult            ....    2
 Number of Electrons    NEL             ....   57
MP2 TOTAL ENERGY:     -691.906751152 Eh
Dispersion correction           -0.006566460
FINAL SINGLE POINT ENERGY      -691.913317611862
MP2 TOTAL ENERGY:     -691.906814245 Eh
Dispersion correction           -0.006575175
FINAL SINGLE POINT ENERGY      -691.913389419494
MP2 TOTAL ENERGY:     -691.906825831 Eh
Dispersion correction           -0.006579482
FINAL SINGLE POINT ENERGY      -691.913405313074
FINAL SINGLE POINT ENERGY      -691.913417004910
FINAL SINGLE POINT ENERGY      -691.913428444496
FINAL SINGLE POINT ENERGY      -691.913432777137
FINAL SINGLE POINT ENERGY      -691.913444495660
FINAL SINGLE POINT ENERGY      -691.913454130397
MP2 TOTAL ENERGY:     -691.906865496 Eh
Dispersion correction           -0.006595615
FINAL SINGLE POINT ENERGY      -691.913461110961
MP2 TOTAL ENERGY:     -691.906866088 Eh
Dispersion correction           -0.006597157
FINAL SINGLE POINT ENERGY      -691.913463245227
                    ***********************HURRAY********************

CARTESIAN COORDINATES (ANGSTROEM)
---------------------------------
  C     -1.130455   -0.768548   -0.057344
  C     -2.531694   -0.669718   -0.575302
  C     -0.256009    0.380627    0.144447
  H     -0.641368   -1.733589   -0.143526
  O     -0.879898   -0.136530    1.251432
  C     -0.369908    1.822538   -0.229909
  H      0.964837    0.040743    0.074754
  H     -2.940561    0.329152   -0.428183
  H     -3.174622   -1.387978   -0.063444
  H     -2.546120   -0.903188   -1.642272
  H      0.123824    2.437351    0.523257
  H      0.111251    1.993701   -1.192606
  H     -1.420354    2.115250   -0.289095
  Cl     2.456822   -0.366979   -0.122971

 Multiplicity           Mult            ....    2
 Number of Electrons    NEL             ....   57
 Basis Dimension        Dim             ....  309

ORBITAL ENERGIES
----------------
                 SPIN UP ORBITALS
  NO   OCC          E(Eh)            E(eV)
   0   1.0000    -103.530480     -2817.2076
   1   1.0000     -20.054301      -545.7053
   2   1.0000     -10.922396      -297.2135
   3   1.0000     -10.903005      -296.6858
   4   1.0000     -10.838575      -294.9326
   5   1.0000     -10.833315      -294.7895
   6   1.0000     -10.116195      -275.2757
   7   1.0000      -7.701312      -209.5634
   8   1.0000      -7.686885      -209.1708
   9   1.0000      -7.686856      -209.1700
  10   1.0000      -1.332901       -36.2701
  11   1.0000      -0.982600       -26.7379
  12   1.0000      -0.948257       -25.8034
  13   1.0000      -0.936785       -25.4912
  14   1.0000      -0.814880       -22.1740
  15   1.0000      -0.731532       -19.9060
  16   1.0000      -0.674711       -18.3598
  17   1.0000      -0.595684       -16.2094
  18   1.0000      -0.578441       -15.7402
  19   1.0000      -0.551564       -15.0088
  20   1.0000      -0.528279       -14.3752
  21   1.0000      -0.526022       -14.3138
  22   1.0000      -0.500142       -13.6095
  23   1.0000      -0.486906       -13.2494
  24   1.0000      -0.445243       -12.1157
  25   1.0000      -0.418662       -11.3924
  26   1.0000      -0.395081       -10.7507
  27   1.0000      -0.393781       -10.7153
  28   1.0000      -0.345699        -9.4070
  29   0.0000       0.091538         2.4909
  30   0.0000       0.122251         3.3266
  31   0.0000       0.133083         3.6214
  32   0.0000       0.149989         4.0814
  33   0.0000       0.155418         4.2291

                 SPIN DOWN ORBITALS
  NO   OCC          E(Eh)            E(eV)
   0   1.0000    -103.524233     -2817.0376
   1   1.0000     -20.049513      -545.5750
   2   1.0000     -10.910533      -296.8907
   3   1.0000     -10.903053      -296.6872
   4   1.0000     -10.838112      -294.9200
   5   1.0000     -10.833354      -294.7905
   6   1.0000     -10.110423      -275.1186
   7   1.0000      -7.683515      -209.0791
   8   1.0000      -7.683480      -209.0781
   9   1.0000      -7.678046      -208.9303
  10   1.0000      -1.321397       -35.9570
  11   1.0000      -0.946972       -25.7684
  12   1.0000      -0.939112       -25.5545
  13   1.0000      -0.918213       -24.9859
  14   1.0000      -0.801074       -21.7983
  15   1.0000      -0.711749       -19.3677
  16   1.0000      -0.638991       -17.3878
  17   1.0000      -0.586904       -15.9705
  18   1.0000      -0.566463       -15.4143
  19   1.0000      -0.547333       -14.8937
  20   1.0000      -0.523870       -14.2552
  21   1.0000      -0.517294       -14.0763
  22   1.0000      -0.482136       -13.1196
  23   1.0000      -0.469132       -12.7657
  24   1.0000      -0.414774       -11.2866
  25   1.0000      -0.396880       -10.7997
  26   1.0000      -0.384008       -10.4494
  27   1.0000      -0.382842       -10.4177
  28   0.0000      -0.063081        -1.7165
  29   0.0000       0.092360         2.5133
  30   0.0000       0.122848         3.3429
  31   0.0000       0.135096         3.6761
  32   0.0000       0.152206         4.1417

MULLIKEN ATOMIC CHARGES AND SPIN DENSITIES
------------------------------------------
   0 C :    0.080365    0.023600
   1 C :   -0.259860   -0.002481
   2 C :    0.068579    0.336073
   3 H :    0.119544   -0.001329
   4 O :   -0.281255    0.136862
   5 C :   -0.245126    0.020595
   6 H :    0.180757   -0.016654
   7 H :    0.090513   -0.000129
   8 H :    0.107134    0.003577
   9 H :    0.098872    0.000895
  10 H :    0.120885    0.001072
  11 H :    0.109052   -0.001462
  12 H :    0.093350    0.026341
  13 Cl:   -0.282809    0.473039
Sum of atomic charges       :    0.0000000

LOEWDIN ATOMIC CHARGES AND SPIN DENSITIES
-----------------------------------------
   0 C :   -0.089403    0.020128
   1 C :    0.014490    0.003286
   2 C :   -0.167890    0.260963
   3 H :    0.019825   -0.001648
   4 O :    0.253256    0.129735
   5 C :    0.021593    0.037239
   6 H :   -0.196790    0.130180
   7 H :    0.017538   -0.000042
   8 H :    0.021667    0.002296
   9 H :    0.023772    0.000574
  10 H :    0.028584    0.001169
  11 H :    0.027620   -0.000594
  12 H :    0.020941    0.017009
  13 Cl:    0.004795    0.399704

  Mayer bond orders larger than 0.100000
B(  0-C ,  1-C ) :   0.9274 B(  0-C ,  2-C ) :   0.9842 B(  0-C ,  3-H ) :   0.9522
B(  0-C ,  4-O ) :   0.8404 B(  1-C ,  7-H ) :   0.9662 B(  1-C ,  8-H ) :   0.9597
B(  1-C ,  9-H ) :   0.9552 B(  2-C ,  4-O ) :   1.0445 B(  2-C ,  5-C ) :   0.9126
B(  2-C ,  6-H ) :   0.5463 B(  2-C , 13-Cl) :   0.1214 B(  5-C , 10-H ) :   0.9569
B(  5-C , 11-H ) :   0.9561 B(  5-C , 12-H ) :   0.9477 B(  6-H , 13-Cl) :   0.5242

MP2 TOTAL ENERGY:     -691.906861837 Eh
Dispersion correction           -0.006597878
FINAL SINGLE POINT ENERGY      -691.913459715399

DIPOLE MOMENT
-------------

Method             : MP2
Type of density    : Electron Density
Multiplicity       :   2
Level              : Relaxed density
Irrep              :   0
Energy             :     0.0000000000000000 Eh
Basis              : AO
                                X                 Y                 Z
Electronic contribution:     11.408892179      -3.051538977       2.402932494
Nuclear contribution   :    -12.929650004       3.380885400      -3.003278908
                        -----------------------------------------
Total Dipole Moment    :     -1.520757825       0.329346423      -0.600346414
                        -----------------------------------------
Magnitude (a.u.)       :      1.667809715
Magnitude (Debye)      :      4.239235397

VIBRATIONAL FREQUENCIES
-----------------------

Scaling factor for frequencies =  1.000000000  (already applied!)

     0:       0.00 cm**-1
     1:       0.00 cm**-1
     2:       0.00 cm**-1
     3:       0.00 cm**-1
     4:       0.00 cm**-1
     5:       0.00 cm**-1
     6:      91.65 cm**-1
     7:      98.93 cm**-1
     8:     138.49 cm**-1
     9:     164.15 cm**-1
    10:     194.04 cm**-1
    11:     244.98 cm**-1
    12:     357.82 cm**-1
    13:     439.28 cm**-1
    14:     489.91 cm**-1
    15:     554.61 cm**-1
    16:     772.86 cm**-1
    17:     815.87 cm**-1
    18:     929.20 cm**-1
    19:     947.56 cm**-1
    20:    1003.91 cm**-1
    21:    1032.91 cm**-1
    22:    1095.89 cm**-1
    23:    1133.49 cm**-1
    24:    1142.57 cm**-1
    25:    1160.82 cm**-1
    26:    1216.15 cm**-1
    27:    1363.37 cm**-1
    28:    1411.84 cm**-1
    29:    1426.24 cm**-1
    30:    1475.20 cm**-1
    31:    1483.96 cm**-1
    32:    1488.61 cm**-1
    33:    1500.47 cm**-1
    34:    1539.13 cm**-1
    35:    3053.48 cm**-1
    36:    3059.56 cm**-1
    37:    3124.90 cm**-1
    38:    3137.62 cm**-1
    39:    3146.31 cm**-1
    40:    3152.06 cm**-1
    41:    3169.35 cm**-1

IR SPECTRUM
-----------

 Mode   freq       eps      Int      T**2         TX        TY        TZ
       cm**-1   L/(mol*cm) km/mol    a.u.
----------------------------------------------------------------------------
  6:     91.65   0.000212    1.07  0.000723  ( 0.009811 -0.019660 -0.015497)
  7:     98.93   0.000380    1.92  0.001198  (-0.001149  0.030149 -0.016966)
  8:    138.49   0.007808   39.46  0.017593  (-0.129553  0.024874  0.013786)
  9:    164.15   0.005471   27.65  0.010401  (-0.099991  0.017849  0.009196)
 10:    194.04   0.000108    0.55  0.000174  (-0.008678  0.002838  0.009496)
 11:    244.98   0.000689    3.48  0.000877  ( 0.024121 -0.013606  0.010508)
 12:    357.82   0.001882    9.51  0.001641  ( 0.037657  0.014649  0.002909)
 13:    439.28   0.003615   18.27  0.002568  ( 0.042629 -0.018194  0.020489)
 14:    489.91   0.088950  449.52  0.056659  ( 0.233965 -0.037751 -0.022228)
 15:    554.61   0.002769   13.99  0.001558  ( 0.035750  0.016335 -0.003595)
 16:    772.86   0.007334   37.06  0.002961  (-0.032574  0.027090  0.034155)
 17:    815.87   0.000850    4.30  0.000325  (-0.004724 -0.010468  0.013905)
 18:    929.20   0.000296    1.50  0.000099  (-0.000361  0.007033 -0.007058)
 19:    947.56   0.003829   19.35  0.001261  ( 0.010157 -0.008519 -0.032945)
 20:   1003.91   0.001289    6.51  0.000401  ( 0.004065 -0.013274  0.014416)
 21:   1032.91   0.008433   42.61  0.002548  ( 0.042693  0.026922 -0.000334)
 22:   1095.89   0.004308   21.77  0.001227  (-0.034309  0.006869  0.001559)
 23:   1133.49   0.000799    4.04  0.000220  (-0.001697 -0.003314 -0.014360)
 24:   1142.57   0.000764    3.86  0.000209  ( 0.002383 -0.008358  0.011537)
 25:   1160.82   0.011232   56.76  0.003019  (-0.044606  0.011686  0.029885)
 26:   1216.15   0.001555    7.86  0.000399  ( 0.013470  0.007351 -0.012785)
 27:   1363.37   0.002719   13.74  0.000622  ( 0.023227  0.005663 -0.007124)
 28:   1411.84   0.002176   11.00  0.000481  (-0.013590 -0.016135  0.005996)
 29:   1426.24   0.001750    8.85  0.000383  ( 0.018871 -0.005104  0.000901)
 30:   1475.20   0.000581    2.94  0.000123  ( 0.002757  0.006874  0.008254)
 31:   1483.96   0.000971    4.91  0.000204  ( 0.003354 -0.009613 -0.010027)
 32:   1488.61   0.000527    2.66  0.000110  ( 0.003952  0.009400  0.002540)
 33:   1500.47   0.002649   13.38  0.000551  (-0.008090  0.001668  0.021969)
 34:   1539.13   0.002622   13.25  0.000532  (-0.000016  0.009632 -0.020949)
 35:   3053.48   0.001198    6.05  0.000122  (-0.006333 -0.008213 -0.003857)
 36:   3059.56   0.002195   11.09  0.000224  ( 0.012604 -0.005819  0.005583)
 37:   3124.90   0.001637    8.27  0.000163  ( 0.005347  0.003772 -0.010985)
 38:   3137.62   0.001605    8.11  0.000160  ( 0.009990  0.007701  0.000733)
 39:   3146.31   0.000681    3.44  0.000068  ( 0.003305 -0.007327  0.001710)
 40:   3152.06   0.000932    4.71  0.000092  (-0.002099  0.002985  0.008888)
 41:   3169.35   0.002540   12.83  0.000250  ( 0.001379 -0.015128 -0.004396)

--------------------------
THERMOCHEMISTRY AT 298.15K
--------------------------

Temperature         ...   298.15 K
Pressure            ...     1.00 atm
Total Mass          ...   107.56 AMU
Quasi RRHO          ...     True
Cut-Off Frequency   ...     1.00 cm^-1

Throughout the following assumptions are being made:
  (1) The electronic state is orbitally nondegenerate
      but the spin degeneracy is treated
  (2) There are no thermally accessible electronically excited states
  (3) Hindered rotations indicated by low frequency modes are not
      treated as such but are treated as vibrations and this may
      cause some error
  (4) All equations used are the standard statistical mechanics
      equations for an ideal gas
  (5) All vibrations are strictly harmonic

freq.      91.65  E(vib)   ...       0.47
freq.      98.93  E(vib)   ...       0.46
freq.     138.49  E(vib)   ...       0.42
freq.     164.15  E(vib)   ...       0.39
freq.     194.04  E(vib)   ...       0.36
freq.     244.98  E(vib)   ...       0.31
freq.     357.82  E(vib)   ...       0.22
freq.     439.28  E(vib)   ...       0.17
freq.     489.91  E(vib)   ...       0.15
freq.     554.61  E(vib)   ...       0.12
freq.     772.86  E(vib)   ...       0.05
freq.     815.87  E(vib)   ...       0.05
freq.     929.20  E(vib)   ...       0.03
freq.     947.56  E(vib)   ...       0.03
freq.    1003.91  E(vib)   ...       0.02
freq.    1032.91  E(vib)   ...       0.02
freq.    1095.89  E(vib)   ...       0.02
freq.    1133.49  E(vib)   ...       0.01
freq.    1142.57  E(vib)   ...       0.01
freq.    1160.82  E(vib)   ...       0.01
freq.    1216.15  E(vib)   ...       0.01
freq.    1363.37  E(vib)   ...       0.01
freq.    1411.84  E(vib)   ...       0.00
freq.    1426.24  E(vib)   ...       0.00
freq.    1475.20  E(vib)   ...       0.00
freq.    1483.96  E(vib)   ...       0.00
freq.    1488.61  E(vib)   ...       0.00
freq.    1500.47  E(vib)   ...       0.00
freq.    1539.13  E(vib)   ...       0.00
freq.    3053.48  E(vib)   ...       0.00
freq.    3059.56  E(vib)   ...       0.00
freq.    3124.90  E(vib)   ...       0.00
freq.    3137.62  E(vib)   ...       0.00
freq.    3146.31  E(vib)   ...       0.00
freq.    3152.06  E(vib)   ...       0.00
freq.    3169.35  E(vib)   ...       0.00

------------
INNER ENERGY
------------

The inner energy is: U= E(el) + E(ZPE) + E(vib) + E(rot) + E(trans)
    E(el)   - is the total energy from the electronic structure calculation
              = E(kin-el) + E(nuc-el) + E(el-el) + E(nuc-nuc)
    E(ZPE)  - the the zero temperature vibrational energy from the frequency calculation
    E(vib)  - the the finite temperature correction to E(ZPE) due to population
              of excited vibrational states
    E(rot)  - is the rotational thermal energy
    E(trans)- is the translational thermal energy

Summary of contributions to the inner energy U:
Electronic energy                ...   -691.91345986 Eh
Zero point energy                ...      0.10834334 Eh      67.99 kcal/mol
Thermal vibrational correction   ...      0.00535177 Eh       3.36 kcal/mol
Thermal rotational correction    ...      0.00141627 Eh       0.89 kcal/mol
Thermal translational correction ...      0.00141627 Eh       0.89 kcal/mol
-----------------------------------------------------------------------
Total thermal energy                   -691.79693221 Eh

Summary of corrections to the electronic energy:
(perhaps to be used in another calculation)
Total thermal correction                  0.00818431 Eh       5.14 kcal/mol
Non-thermal (ZPE) correction              0.10834334 Eh      67.99 kcal/mol
-----------------------------------------------------------------------
Total correction                          0.11652766 Eh      73.12 kcal/mol

--------
ENTHALPY
--------

The enthalpy is H = U + kB*T
                kB is Boltzmann's constant
Total thermal energy              ...   -691.79693221 Eh
Thermal Enthalpy correction       ...      0.00094421 Eh       0.59 kcal/mol
-----------------------------------------------------------------------
Total Enthalpy                    ...   -691.79598800 Eh

Note: Only C1 symmetry has been detected, increase convergence thresholds
      if your molecule has a higher symmetry. Symmetry factor of 1.0 is
      used for the rotational entropy correction.

Note: Rotational entropy computed according to Herzberg
Infrared and Raman Spectra, Chapter V,1, Van Nostrand Reinhold, 1945
Point Group:  C1, Symmetry Number:   1
Rotational constants in cm-1:     0.147231     0.043925     0.039368

Vibrational entropy computed according to the QRRHO of S. Grimme
Chem.Eur.J. 2012 18 9955 using a reference frequency of 100.0 cm-1

-------
ENTROPY
-------

The entropy contributions are T*S = T*(S(el)+S(vib)+S(rot)+S(trans))
     S(el)   - electronic entropy
     S(vib)  - vibrational entropy
     S(rot)  - rotational entropy
     S(trans)- translational entropy
The entropies will be listed as multiplied by the temperature to get
units of energy

Electronic entropy                ...      0.00065446 Eh      0.41 kcal/mol
Vibrational entropy               ...      0.00949864 Eh      5.96 kcal/mol
Rotational entropy                ...      0.01341774 Eh      8.42 kcal/mol
Translational entropy             ...      0.01897446 Eh     11.91 kcal/mol
-----------------------------------------------------------------------
Final entropy term                ...      0.04254530 Eh     26.70 kcal/mol

In case the symmetry of your molecule has not been determined correctly
or in case you have a reason to use a different symmetry number we print
out the resulting rotational entropy values for sn=1,12:

 non-linear molecules -----------------------------------
|  sn= 1 | S(rot)=       0.01341774 Eh      8.42 kcal/mol|
|  sn= 2 | S(rot)=       0.01276329 Eh      8.01 kcal/mol|
|  sn= 3 | S(rot)=       0.01238045 Eh      7.77 kcal/mol|
|  sn= 4 | S(rot)=       0.01210883 Eh      7.60 kcal/mol|
|  sn= 5 | S(rot)=       0.01189814 Eh      7.47 kcal/mol|
|  sn= 6 | S(rot)=       0.01172600 Eh      7.36 kcal/mol|
|  sn= 7 | S(rot)=       0.01158045 Eh      7.27 kcal/mol|
|  sn= 8 | S(rot)=       0.01145437 Eh      7.19 kcal/mol|
|  sn= 9 | S(rot)=       0.01134316 Eh      7.12 kcal/mol|
|  sn=10 | S(rot)=       0.01124369 Eh      7.06 kcal/mol|
|  sn=11 | S(rot)=       0.01115370 Eh      7.00 kcal/mol|
|  sn=12 | S(rot)=       0.01107154 Eh      6.95 kcal/mol|
 linear molecules ---------------------------------------
|  Dinfh | S(rot)=       0.00838004 Eh      5.26 kcal/mol|
|  Cinfv | S(rot)=       0.00903450 Eh      5.67 kcal/mol|
 --------------------------------------------------------

-------------------
GIBBS FREE ENERGY
-------------------

The Gibbs free energy is G = H - T*S

                             ****ORCA TERMINATED NORMALLY****
TOTAL RUN TIME: 0 days 0 hours 38 minutes 30 seconds 684 msec
