                         Program Version 6.1.0  -  RELEASE   -
|  1> % MaxCore 10000
|  2> ! PAL8
|  3> ! REVDSD-PBEP86-D4/2021 def2-TZVPP def2-TZVPP/c
|  4> ! TIGHT-NEB-TS
|  5> ! NumFreq
|  6>
|  7> %NEB
|  8>  NEB_END_XYZFILE "well_c.xyz"
|  9> END
| 10>
| 11> * xyzfile 0 2 well_b.xyz
| 12>
| 13>                          ****END OF INPUT****
 Total Charge           Charge          ....    0
 Multiplicity           Mult            ....    2
 Number of Electrons    NEL             ....   57
MP2 TOTAL ENERGY:     -691.906850173 Eh
Dispersion correction           -0.006606970
FINAL SINGLE POINT ENERGY      -691.913457143374

CARTESIAN COORDINATES (ANGSTROEM)
---------------------------------
  C     -0.222985   -0.996946    0.171573
  C     -1.624196   -0.969203   -0.354893
  C      0.603880    0.191477    0.339194
  H      0.303233   -1.944756    0.122003
  O     -0.004440   -0.309624    1.459813
  C      0.447363    1.614594   -0.084936
  H      1.859460   -0.113076    0.283981
  H     -2.070639    0.018133   -0.243805
  H     -2.242490   -1.693154    0.178679
  H     -1.624095   -1.239108   -1.413248
  H      0.904940    2.271095    0.655640
  H      0.939325    1.770947   -1.044499
  H     -0.611714    1.867402   -0.171871
  Cl     3.342358   -0.467781    0.102371

MP2 TOTAL ENERGY:     -691.906853183 Eh
Dispersion correction           -0.006605517
FINAL SINGLE POINT ENERGY      -691.913458700197
                    ***********************HURRAY********************
 Multiplicity           Mult            ....    2
 Number of Electrons    NEL             ....   57
 Basis Dimension        Dim             ....  309

ORBITAL ENERGIES
----------------
                 SPIN UP ORBITALS
  NO   OCC          E(Eh)            E(eV)
   0   1.0000    -103.527392     -2817.1235
   1   1.0000     -20.056016      -545.7519
   2   1.0000     -10.923403      -297.2409
   3   1.0000     -10.904088      -296.7153
   4   1.0000     -10.839477      -294.9572
   5   1.0000     -10.833966      -294.8072
   6   1.0000     -10.113266      -275.1960
   7   1.0000      -7.697787      -209.4674
   8   1.0000      -7.684104      -209.0951
   9   1.0000      -7.684075      -209.0943
  10   1.0000      -1.334602       -36.3164
  11   1.0000      -0.981439       -26.7063
  12   1.0000      -0.948938       -25.8219
  13   1.0000      -0.937470       -25.5099
  14   1.0000      -0.815533       -22.1918
  15   1.0000      -0.731455       -19.9039
  16   1.0000      -0.675184       -18.3727
  17   1.0000      -0.596845       -16.2410
  18   1.0000      -0.579370       -15.7655
  19   1.0000      -0.552403       -15.0317
  20   1.0000      -0.529050       -14.3962
  21   1.0000      -0.526695       -14.3321
  22   1.0000      -0.500869       -13.6293
  23   1.0000      -0.487937       -13.2775
  24   1.0000      -0.446734       -12.1562
  25   1.0000      -0.419525       -11.4159
  26   1.0000      -0.393074       -10.6961
  27   1.0000      -0.391893       -10.6640
  28   1.0000      -0.341842        -9.3020
  29   0.0000       0.091095         2.4788
  30   0.0000       0.121930         3.3179
  31   0.0000       0.132571         3.6075
  32   0.0000       0.149130         4.0580
  33   0.0000       0.155149         4.2218

                 SPIN DOWN ORBITALS
  NO   OCC          E(Eh)            E(eV)
   0   1.0000    -103.521504     -2816.9633
   1   1.0000     -20.050970      -545.6146
   2   1.0000     -10.910974      -296.9027
   3   1.0000     -10.904143      -296.7168
   4   1.0000     -10.839003      -294.9443
   5   1.0000     -10.834003      -294.8082
   6   1.0000     -10.107817      -275.0477
   7   1.0000      -7.680920      -209.0084
   8   1.0000      -7.680884      -209.0075
   9   1.0000      -7.675929      -208.8726
  10   1.0000      -1.322496       -35.9870
  11   1.0000      -0.947702       -25.7883
  12   1.0000      -0.940041       -25.5798
  13   1.0000      -0.919297       -25.0154
  14   1.0000      -0.801525       -21.8106
  15   1.0000      -0.711608       -19.3638
  16   1.0000      -0.637926       -17.3589
  17   1.0000      -0.587635       -15.9904
  18   1.0000      -0.567069       -15.4307
  19   1.0000      -0.547901       -14.9091
  20   1.0000      -0.524705       -14.2780
  21   1.0000      -0.517845       -14.0913
  22   1.0000      -0.482940       -13.1415
  23   1.0000      -0.470602       -12.8057
  24   1.0000      -0.415618       -11.3095
  25   1.0000      -0.399322       -10.8661
  26   1.0000      -0.382671       -10.4130
  27   1.0000      -0.381573       -10.3831
  28   0.0000      -0.058175        -1.5830
  29   0.0000       0.091956         2.5022
  30   0.0000       0.122575         3.3354
  31   0.0000       0.134680         3.6648
  32   0.0000       0.151471         4.1217

-------
TIMINGS
-------

MP2 TOTAL ENERGY:     -691.906852942 Eh
Dispersion correction           -0.006604982
FINAL SINGLE POINT ENERGY      -691.913457923276
                    ***********************HURRAY************************

DIPOLE MOMENT
-------------

Method             : MP2
Type of density    : Electron Density
Multiplicity       :   2
Level              : Relaxed density
Irrep              :   0
Energy             :     0.0000000000000000 Eh
Basis              : AO
                                X                 Y                 Z
Electronic contribution:     11.424543085      -2.540224279       2.540930236
Nuclear contribution   :    -12.978698572       2.798045228      -3.152230989
                        -----------------------------------------
Total Dipole Moment    :     -1.554155488       0.257820948      -0.611300753
                        -----------------------------------------
Magnitude (a.u.)       :      1.689840091
Magnitude (Debye)      :      4.295232164

VIBRATIONAL FREQUENCIES
-----------------------

Scaling factor for frequencies =  1.000000000  (already applied!)

     0:       0.00 cm**-1
     1:       0.00 cm**-1
     2:       0.00 cm**-1
     3:       0.00 cm**-1
     4:       0.00 cm**-1
     5:       0.00 cm**-1
     6:    -189.90 cm**-1  ***imaginary mode***
     7:      52.01 cm**-1
     8:      95.78 cm**-1
     9:     163.18 cm**-1
    10:     218.67 cm**-1
    11:     255.24 cm**-1
    12:     290.65 cm**-1
    13:     368.69 cm**-1
    14:     441.76 cm**-1
    15:     562.01 cm**-1
    16:     758.36 cm**-1
    17:     812.53 cm**-1
    18:     922.40 cm**-1
    19:     937.00 cm**-1
    20:    1007.87 cm**-1
    21:    1026.22 cm**-1
    22:    1095.20 cm**-1
    23:    1115.40 cm**-1
    24:    1146.71 cm**-1
    25:    1165.18 cm**-1
    26:    1225.55 cm**-1
    27:    1365.63 cm**-1
    28:    1410.26 cm**-1
    29:    1421.19 cm**-1
    30:    1480.51 cm**-1
    31:    1483.51 cm**-1
    32:    1495.86 cm**-1
    33:    1505.40 cm**-1
    34:    1541.54 cm**-1
    35:    3051.79 cm**-1
    36:    3057.76 cm**-1
    37:    3126.92 cm**-1
    38:    3134.02 cm**-1
    39:    3147.03 cm**-1
    40:    3156.63 cm**-1
    41:    3167.35 cm**-1

IR SPECTRUM
-----------

 Mode   freq       eps      Int      T**2         TX        TY        TZ
       cm**-1   L/(mol*cm) km/mol    a.u.
----------------------------------------------------------------------------
  7:     52.01   0.000412    2.08  0.002469  (-0.045368 -0.002039 -0.020169)
  8:     95.78   0.000606    3.06  0.001975  (-0.021548  0.037434 -0.010462)
  9:    163.18   0.000061    0.31  0.000117  ( 0.004533 -0.006350 -0.007479)
 10:    218.67   0.000152    0.77  0.000217  ( 0.013640  0.001233 -0.005435)
 11:    255.24   0.000218    1.10  0.000266  ( 0.000895  0.008613 -0.013824)
 12:    290.65   0.016533   83.55  0.017752  (-0.131879  0.016339  0.009619)
 13:    368.69   0.001118    5.65  0.000946  ( 0.025376  0.016290  0.006088)
 14:    441.76   0.001158    5.85  0.000818  (-0.005132  0.013471 -0.024695)
 15:    562.01   0.001030    5.20  0.000572  ( 0.012124  0.020605 -0.000471)
 16:    758.36   0.003470   17.54  0.001428  ( 0.017303  0.022604  0.024852)
 17:    812.53   0.001865    9.42  0.000716  (-0.015417 -0.002947  0.021676)
 18:    922.40   0.000891    4.50  0.000301  (-0.013236 -0.007969 -0.007922)
 19:    937.00   0.003152   15.93  0.001050  (-0.008453  0.005559  0.030780)
 20:   1007.87   0.001075    5.43  0.000333  ( 0.009186 -0.010075  0.012120)
 21:   1026.22   0.009774   49.39  0.002972  ( 0.046140  0.027946 -0.007887)
 22:   1095.20   0.003041   15.37  0.000867  (-0.028045  0.003765  0.008113)
 23:   1115.40   0.003017   15.25  0.000844  (-0.022821  0.002189 -0.017846)
 24:   1146.71   0.000881    4.45  0.000240  ( 0.014158  0.003531 -0.005176)
 25:   1165.18   0.012274   62.03  0.003287  ( 0.047056 -0.013269 -0.029946)
 26:   1225.55   0.001620    8.19  0.000413  (-0.012769 -0.007597  0.013851)
 27:   1365.63   0.002843   14.37  0.000650  (-0.023532 -0.006537  0.007291)
 28:   1410.26   0.002210   11.17  0.000489  ( 0.013145  0.016690 -0.006132)
 29:   1421.19   0.001584    8.01  0.000348  ( 0.017495 -0.004922  0.004194)
 30:   1480.51   0.001303    6.58  0.000275  ( 0.005507 -0.012104 -0.009886)
 31:   1483.51   0.000616    3.12  0.000130  ( 0.005221  0.007514  0.006778)
 32:   1495.86   0.000235    1.19  0.000049  (-0.002671 -0.006403 -0.000943)
 33:   1505.40   0.003109   15.71  0.000645  ( 0.010652 -0.002456 -0.022914)
 34:   1541.54   0.002504   12.65  0.000507  (-0.000262 -0.009028  0.020622)
 35:   3051.79   0.001502    7.59  0.000154  ( 0.008753  0.006821  0.005520)
 36:   3057.76   0.001902    9.61  0.000194  (-0.010900  0.007226 -0.004808)
 37:   3126.92   0.001728    8.73  0.000172  ( 0.006771  0.003291 -0.010760)
 38:   3134.02   0.001278    6.46  0.000127  (-0.008936 -0.006350 -0.002661)
 39:   3147.03   0.000745    3.77  0.000074  (-0.002145  0.008054 -0.002101)
 40:   3156.63   0.000781    3.95  0.000077  ( 0.002987  0.000015 -0.008262)
 41:   3167.35   0.002651   13.40  0.000261  (-0.001474  0.015555  0.004126)

--------------------------
THERMOCHEMISTRY AT 298.15K
--------------------------

Temperature         ...   298.15 K
Pressure            ...     1.00 atm
Total Mass          ...   107.56 AMU
Quasi RRHO          ...     True
Cut-Off Frequency   ...     1.00 cm^-1

Throughout the following assumptions are being made:
  (1) The electronic state is orbitally nondegenerate
      but the spin degeneracy is treated
  (2) There are no thermally accessible electronically excited states
  (3) Hindered rotations indicated by low frequency modes are not
      treated as such but are treated as vibrations and this may
      cause some error
  (4) All equations used are the standard statistical mechanics
      equations for an ideal gas
  (5) All vibrations are strictly harmonic

freq.      52.01  E(vib)   ...       0.52
freq.      95.78  E(vib)   ...       0.47
freq.     163.18  E(vib)   ...       0.39
freq.     218.67  E(vib)   ...       0.33
freq.     255.24  E(vib)   ...       0.30
freq.     290.65  E(vib)   ...       0.27
freq.     368.69  E(vib)   ...       0.21
freq.     441.76  E(vib)   ...       0.17
freq.     562.01  E(vib)   ...       0.11
freq.     758.36  E(vib)   ...       0.06
freq.     812.53  E(vib)   ...       0.05
freq.     922.40  E(vib)   ...       0.03
freq.     937.00  E(vib)   ...       0.03
freq.    1007.87  E(vib)   ...       0.02
freq.    1026.22  E(vib)   ...       0.02
freq.    1095.20  E(vib)   ...       0.02
freq.    1115.40  E(vib)   ...       0.01
freq.    1146.71  E(vib)   ...       0.01
freq.    1165.18  E(vib)   ...       0.01
freq.    1225.55  E(vib)   ...       0.01
freq.    1365.63  E(vib)   ...       0.01
freq.    1410.26  E(vib)   ...       0.00
freq.    1421.19  E(vib)   ...       0.00
freq.    1480.51  E(vib)   ...       0.00
freq.    1483.51  E(vib)   ...       0.00
freq.    1495.86  E(vib)   ...       0.00
freq.    1505.40  E(vib)   ...       0.00
freq.    1541.54  E(vib)   ...       0.00
freq.    3051.79  E(vib)   ...       0.00
freq.    3057.76  E(vib)   ...       0.00
freq.    3126.92  E(vib)   ...       0.00
freq.    3134.02  E(vib)   ...       0.00
freq.    3147.03  E(vib)   ...       0.00
freq.    3156.63  E(vib)   ...       0.00
freq.    3167.35  E(vib)   ...       0.00

------------
INNER ENERGY
------------

The inner energy is: U= E(el) + E(ZPE) + E(vib) + E(rot) + E(trans)
    E(el)   - is the total energy from the electronic structure calculation
              = E(kin-el) + E(nuc-el) + E(el-el) + E(nuc-nuc)
    E(ZPE)  - the the zero temperature vibrational energy from the frequency calculation
    E(vib)  - the the finite temperature correction to E(ZPE) due to population
              of excited vibrational states
    E(rot)  - is the rotational thermal energy
    E(trans)- is the translational thermal energy

Summary of contributions to the inner energy U:
Electronic energy                ...   -691.91345819 Eh
Zero point energy                ...      0.10754264 Eh      67.48 kcal/mol
Thermal vibrational correction   ...      0.00491442 Eh       3.08 kcal/mol
Thermal rotational correction    ...      0.00141627 Eh       0.89 kcal/mol
Thermal translational correction ...      0.00141627 Eh       0.89 kcal/mol
-----------------------------------------------------------------------
Total thermal energy                   -691.79816859 Eh

Summary of corrections to the electronic energy:
(perhaps to be used in another calculation)
Total thermal correction                  0.00774697 Eh       4.86 kcal/mol
Non-thermal (ZPE) correction              0.10754264 Eh      67.48 kcal/mol
-----------------------------------------------------------------------
Total correction                          0.11528961 Eh      72.35 kcal/mol

--------
ENTHALPY
--------

The enthalpy is H = U + kB*T
                kB is Boltzmann's constant
Total thermal energy              ...   -691.79816859 Eh
Thermal Enthalpy correction       ...      0.00094421 Eh       0.59 kcal/mol
-----------------------------------------------------------------------
Total Enthalpy                    ...   -691.79722438 Eh

Note: Only C1 symmetry has been detected, increase convergence thresholds
      if your molecule has a higher symmetry. Symmetry factor of 1.0 is
      used for the rotational entropy correction.

Note: Rotational entropy computed according to Herzberg
Infrared and Raman Spectra, Chapter V,1, Van Nostrand Reinhold, 1945
Point Group:  C1, Symmetry Number:   1
Rotational constants in cm-1:     0.146957     0.044012     0.039430

Vibrational entropy computed according to the QRRHO of S. Grimme
Chem.Eur.J. 2012 18 9955 using a reference frequency of 100.0 cm-1

-------
ENTROPY
-------

The entropy contributions are T*S = T*(S(el)+S(vib)+S(rot)+S(trans))
     S(el)   - electronic entropy
     S(vib)  - vibrational entropy
     S(rot)  - rotational entropy
     S(trans)- translational entropy
The entropies will be listed as multiplied by the temperature to get
units of energy

Electronic entropy                ...      0.00065446 Eh      0.41 kcal/mol
Vibrational entropy               ...      0.00859503 Eh      5.39 kcal/mol
Rotational entropy                ...      0.01341695 Eh      8.42 kcal/mol
Translational entropy             ...      0.01897446 Eh     11.91 kcal/mol
-----------------------------------------------------------------------
Final entropy term                ...      0.04164089 Eh     26.13 kcal/mol

In case the symmetry of your molecule has not been determined correctly
or in case you have a reason to use a different symmetry number we print
out the resulting rotational entropy values for sn=1,12:

 non-linear molecules -----------------------------------
|  sn= 1 | S(rot)=       0.01341695 Eh      8.42 kcal/mol|
|  sn= 2 | S(rot)=       0.01276249 Eh      8.01 kcal/mol|
|  sn= 3 | S(rot)=       0.01237966 Eh      7.77 kcal/mol|
|  sn= 4 | S(rot)=       0.01210804 Eh      7.60 kcal/mol|
|  sn= 5 | S(rot)=       0.01189735 Eh      7.47 kcal/mol|
|  sn= 6 | S(rot)=       0.01172520 Eh      7.36 kcal/mol|
|  sn= 7 | S(rot)=       0.01157966 Eh      7.27 kcal/mol|
|  sn= 8 | S(rot)=       0.01145358 Eh      7.19 kcal/mol|
|  sn= 9 | S(rot)=       0.01134237 Eh      7.12 kcal/mol|
|  sn=10 | S(rot)=       0.01124289 Eh      7.06 kcal/mol|
|  sn=11 | S(rot)=       0.01115290 Eh      7.00 kcal/mol|
|  sn=12 | S(rot)=       0.01107075 Eh      6.95 kcal/mol|
 linear molecules ---------------------------------------
|  Dinfh | S(rot)=       0.00837856 Eh      5.26 kcal/mol|
|  Cinfv | S(rot)=       0.00903302 Eh      5.67 kcal/mol|
 --------------------------------------------------------

-------------------
GIBBS FREE ENERGY
-------------------

The Gibbs free energy is G = H - T*S

                             ****ORCA TERMINATED NORMALLY****
TOTAL RUN TIME: 0 days 3 hours 9 minutes 30 seconds 108 msec
