 Gaussian 16, Revision C.01,
 Gaussian 16:  ES64L-G16RevC.01  3-Jul-2019

 ---------------------------------------------------------
 #P b2plypd3/cc-pvtz # SCF=(xqc) # POpt=() # int=ultrafine
 ---------------------------------------------------------

 --------
 comment:
 --------
 Symbolic Z-matrix:
 Charge =  0 Multiplicity = 2

 SCF Done:  E(UB2PLYPD3) =  -691.992807796     A.U. after   15 cycles
 E2(B2PLYPD3) =    -0.3616942836D+00 E(B2PLYPD3) =    -0.69235450207928D+03
 SCF Done:  E(UB2PLYPD3) =  -691.993211302     A.U. after   11 cycles
 E2(B2PLYPD3) =    -0.3619489695D+00 E(B2PLYPD3) =    -0.69235516027134D+03
 SCF Done:  E(UB2PLYPD3) =  -691.993145773     A.U. after   10 cycles
 E2(B2PLYPD3) =    -0.3620871905D+00 E(B2PLYPD3) =    -0.69235523296392D+03
 SCF Done:  E(UB2PLYPD3) =  -691.992908913     A.U. after   11 cycles
 E2(B2PLYPD3) =    -0.3624846066D+00 E(B2PLYPD3) =    -0.69235539351947D+03
 SCF Done:  E(UB2PLYPD3) =  -691.992178314     A.U. after   12 cycles
 E2(B2PLYPD3) =    -0.3633467886D+00 E(B2PLYPD3) =    -0.69235552510241D+03
 SCF Done:  E(UB2PLYPD3) =  -691.992137501     A.U. after    9 cycles
 E2(B2PLYPD3) =    -0.3633996017D+00 E(B2PLYPD3) =    -0.69235553710221D+03
 SCF Done:  E(UB2PLYPD3) =  -691.989226822     A.U. after   15 cycles
 E2(B2PLYPD3) =    -0.3658515537D+00 E(B2PLYPD3) =    -0.69235507837596D+03
 SCF Done:  E(UB2PLYPD3) =  -691.991579690     A.U. after   10 cycles
 E2(B2PLYPD3) =    -0.3639481855D+00 E(B2PLYPD3) =    -0.69235552787516D+03
 SCF Done:  E(UB2PLYPD3) =  -691.991951121     A.U. after    8 cycles
 E2(B2PLYPD3) =    -0.3635915472D+00 E(B2PLYPD3) =    -0.69235554266800D+03
 SCF Done:  E(UB2PLYPD3) =  -691.991938219     A.U. after    9 cycles
 E2(B2PLYPD3) =    -0.3636066356D+00 E(B2PLYPD3) =    -0.69235554485496D+03
 E2(B2PLYPD3) =    -0.3625656529D+00 E(B2PLYPD3) =    -0.69235532805897D+03
 E2(B2PLYPD3) =    -0.3635704943D+00 E(B2PLYPD3) =    -0.69235554272224D+03
 E2(B2PLYPD3) =    -0.3635997532D+00 E(B2PLYPD3) =    -0.69235554497199D+03
 E2(B2PLYPD3) =    -0.3636680135D+00 E(B2PLYPD3) =    -0.69235554829473D+03
 E2(B2PLYPD3) =    -0.3636500452D+00 E(B2PLYPD3) =    -0.69235554914099D+03
 E2(B2PLYPD3) =    -0.3637231687D+00 E(B2PLYPD3) =    -0.69235554855956D+03
 E2(B2PLYPD3) =    -0.3635668455D+00 E(B2PLYPD3) =    -0.69235555019884D+03
 SCF Done:  E(UB2PLYPD3) =  -691.991966672     A.U. after    8 cycles
 E2(B2PLYPD3) =    -0.3635838843D+00 E(B2PLYPD3) =    -0.69235555055642D+03
 SCF Done:  E(UB2PLYPD3) =  -691.992243101     A.U. after   11 cycles
 E2(B2PLYPD3) =    -0.3632977154D+00 E(B2PLYPD3) =    -0.69235554081684D+03
 SCF Done:  E(UB2PLYPD3) =  -691.992044451     A.U. after   11 cycles
 E2(B2PLYPD3) =    -0.3635054591D+00 E(B2PLYPD3) =    -0.69235554991014D+03
 SCF Done:  E(UB2PLYPD3) =  -691.991477251     A.U. after   12 cycles
 E2(B2PLYPD3) =    -0.3639055586D+00 E(B2PLYPD3) =    -0.69235538280966D+03
 SCF Done:  E(UB2PLYPD3) =  -691.991952571     A.U. after    5 cycles
 E2(B2PLYPD3) =    -0.3635983876D+00 E(B2PLYPD3) =    -0.69235555095832D+03
 SCF Done:  E(UB2PLYPD3) =  -691.991952631     A.U. after    8 cycles
 E2(B2PLYPD3) =    -0.3635987875D+00 E(B2PLYPD3) =    -0.69235555141844D+03
 SCF Done:  E(UB2PLYPD3) =  -691.991948871     A.U. after    8 cycles
 E2(B2PLYPD3) =    -0.3636027854D+00 E(B2PLYPD3) =    -0.69235555165608D+03
 SCF Done:  E(UB2PLYPD3) =  -691.991959225     A.U. after    8 cycles
 E2(B2PLYPD3) =    -0.3635924844D+00 E(B2PLYPD3) =    -0.69235555170947D+03
 SCF Done:  E(UB2PLYPD3) =  -691.991965004     A.U. after    8 cycles
 E2(B2PLYPD3) =    -0.3635868562D+00 E(B2PLYPD3) =    -0.69235555186040D+03
 SCF Done:  E(UB2PLYPD3) =  -691.991956682     A.U. after    7 cycles
 E2(B2PLYPD3) =    -0.3635952407D+00 E(B2PLYPD3) =    -0.69235555192261D+03
 Optimization completed.
    -- Stationary point found.

                         Standard orientation:
 ---------------------------------------------------------------------
 Center     Atomic      Atomic             Coordinates (Angstroms)
 Number     Number       Type             X           Y           Z
 ---------------------------------------------------------------------
      1          6           0       -1.130633   -0.770817   -0.038744
      2          6           0       -2.529471   -0.795363   -0.568989
      3          6           0       -0.356792    0.440494    0.146447
      4          1           0       -0.582377   -1.704283   -0.070961
      5          8           0       -0.952375   -0.065907    1.263849
      6          6           0       -0.463559    1.856220   -0.283392
      7          1           0        1.301938    0.005117    0.047536
      8          1           0       -3.009009    0.174251   -0.461166
      9          1           0       -3.125135   -1.539671   -0.042218
     10          1           0       -2.515966   -1.062680   -1.625732
     11          1           0       -0.020338    2.506658    0.468209
     12          1           0        0.060560    2.003724   -1.224568
     13          1           0       -1.510154    2.145263   -0.412184
     14         17           0        2.582483   -0.375549   -0.136567
 ---------------------------------------------------------------------

 The electronic state is 2-A.
 Alpha  occ. eigenvalues -- -102.90409 -19.77830 -10.70771 -10.70150 -10.63907
 Alpha  occ. eigenvalues --  -10.63243  -9.89386  -7.53546  -7.52802  -7.52800
 Alpha  occ. eigenvalues --   -1.25755  -0.92741  -0.89238  -0.88152  -0.75928
 Alpha  occ. eigenvalues --   -0.67360  -0.61483  -0.55810  -0.53779  -0.51679
 Alpha  occ. eigenvalues --   -0.49981  -0.49489  -0.47721  -0.45478  -0.41690
 Alpha  occ. eigenvalues --   -0.38960  -0.36556  -0.36487  -0.28071
 Alpha virt. eigenvalues --    0.06682   0.09724   0.10473   0.12475   0.13171
 Alpha virt. eigenvalues --    0.13977   0.14991   0.16093   0.17986   0.19726
 Alpha virt. eigenvalues --    0.20334   0.22451   0.25206   0.27292   0.27783

  Beta  occ. eigenvalues -- -102.90249 -19.77211 -10.70157 -10.69298 -10.63864
  Beta  occ. eigenvalues --  -10.63240  -9.89226  -7.52963  -7.52712  -7.52710
  Beta  occ. eigenvalues --   -1.24350  -0.91505  -0.88725  -0.87091  -0.74733
  Beta  occ. eigenvalues --   -0.65894  -0.58064  -0.54798  -0.52625  -0.51166
  Beta  occ. eigenvalues --   -0.49306  -0.48725  -0.47010  -0.44869  -0.38432
  Beta  occ. eigenvalues --   -0.38133  -0.36258  -0.36164
  Beta virt. eigenvalues --   -0.03511   0.06810   0.09832   0.10758   0.12803
  Beta virt. eigenvalues --    0.13240   0.14158   0.15211   0.17296   0.18724
  Beta virt. eigenvalues --    0.20629   0.21272   0.23405   0.25437   0.27762

 Mulliken charges and spin densities:
               1          2
     1  C    0.023748  -0.006811
     2  C   -0.274866   0.004525
     3  C    0.090502   0.670879
     4  H    0.144357   0.000644
     5  O   -0.296543   0.142985
     6  C   -0.281903   0.001234
     7  H    0.197554  -0.017895
     8  H    0.106252  -0.000701
     9  H    0.115955   0.005120
    10  H    0.104513   0.000200
    11  H    0.128054   0.002030
    12  H    0.116608  -0.000621
    13  H    0.102833   0.050509
    14  Cl  -0.277066   0.147902
 Sum of Mulliken charges =  -0.00000   1.00000

 Dipole moment (field-independent basis, Debye):
    X=             -3.4487    Y=              0.6902    Z=             -1.7311  Tot=              3.9200
 Quadrupole moment (field-independent basis, Debye-Ang):
   XX=            -48.6473   YY=            -40.6596   ZZ=            -47.4918
   XY=              1.9388   XZ=              2.6937   YZ=              0.2277

 Normal termination of Gaussian 16 at Mon Oct  7 14:31:05 2024.
