 Gaussian 16, Revision C.01,
 Gaussian 16:  ES64L-G16RevC.01  3-Jul-2019

 ----------------------------------------------------------------------
 #P b2plypd3/cc-pvtz # SCF=(xqc) # Freq=() # IOp(7/33=1) # int=ultrafin
 e
 ----------------------------------------------------------------------

 --------
 comment:
 --------
 Symbolic Z-matrix:
 Charge =  0 Multiplicity = 2

                         Standard orientation:
 ---------------------------------------------------------------------
 Center     Atomic      Atomic             Coordinates (Angstroms)
 Number     Number       Type             X           Y           Z
 ---------------------------------------------------------------------
      1          6           0       -0.833168   -0.744575    0.299303
      2          6           0       -1.749092   -1.304894   -0.746766
      3          6           0       -0.381358    0.652619    0.336261
      4          1           0       -0.185796   -1.474558    0.774485
      5          8           0       -1.392370    0.194447    1.237915
      6          6           0       -0.743926    1.703651   -0.671490
      7          1           0        0.564339    0.852016    0.852117
      8          1           0       -1.164271   -1.759912   -1.546252
      9          1           0       -2.382601   -2.076591   -0.311537
     10          1           0       -2.391933   -0.540684   -1.172946
     11          1           0       -1.688369    1.481977   -1.159224
     12          1           0        0.037761    1.773781   -1.427223
     13          1           0       -0.831602    2.672749   -0.182576
     14         17           0        2.436864   -0.254421   -0.060824
 ---------------------------------------------------------------------

 SCF Done:  E(UB2PLYPD3) =  -691.994203051     A.U. after   26 cycles
 E2(B2PLYPD3) =    -0.3576138319D+00 E(B2PLYPD3) =    -0.69235181688254D+03
 E2(B2PLYPD3) =    -0.3576138319D+00 E(B2PLYPD3) =    -0.69235181688254D+03

 The electronic state is 2-A.
 Alpha  occ. eigenvalues -- -102.97305 -19.73852 -10.67957 -10.67583 -10.61601
 Alpha  occ. eigenvalues --  -10.61498  -9.95935  -7.61302  -7.59044  -7.59041
 Alpha  occ. eigenvalues --   -1.21600  -0.96272  -0.87174  -0.85880  -0.73938
 Alpha  occ. eigenvalues --   -0.66772  -0.60293  -0.53089  -0.51340  -0.49964
 Alpha  occ. eigenvalues --   -0.47976  -0.46953  -0.46150  -0.43214  -0.42217
 Alpha  occ. eigenvalues --   -0.41193  -0.40608  -0.35781  -0.34446
 Alpha virt. eigenvalues --    0.07958   0.10608   0.10994   0.14146   0.14418
 Alpha virt. eigenvalues --    0.15065   0.15441   0.17833   0.19349   0.21443
 Alpha virt. eigenvalues --    0.21730   0.25327   0.27575   0.28947   0.31145

  Beta  occ. eigenvalues -- -102.96467 -19.73720 -10.67854 -10.67574 -10.61588
  Beta  occ. eigenvalues --  -10.61497  -9.95117  -7.58598  -7.58595  -7.58065
  Beta  occ. eigenvalues --   -1.21322  -0.88762  -0.86909  -0.85794  -0.73503
  Beta  occ. eigenvalues --   -0.66532  -0.59954  -0.52830  -0.50948  -0.49800
  Beta  occ. eigenvalues --   -0.47188  -0.46872  -0.43107  -0.42029  -0.39504
  Beta  occ. eigenvalues --   -0.39298  -0.35591  -0.34220
  Beta virt. eigenvalues --   -0.15342   0.08017   0.10705   0.11075   0.14205
  Beta virt. eigenvalues --    0.14496   0.15103   0.15535   0.17967   0.19738
  Beta virt. eigenvalues --    0.21504   0.21769   0.25387   0.27608   0.29360

 Mulliken charges and spin densities:
               1          2
     1  C    0.063775  -0.000344
     2  C   -0.286508   0.001147
     3  C    0.029145   0.020439
     4  H    0.120240  -0.001195
     5  O   -0.352805   0.034236
     6  C   -0.279079   0.006902
     7  H    0.126464  -0.004163
     8  H    0.097569  -0.000369
     9  H    0.109798  -0.000079
    10  H    0.101876  -0.000030
    11  H    0.101186   0.000956
    12  H    0.099435  -0.000974
    13  H    0.110316  -0.000369
    14  Cl  -0.041412   0.943845
 Sum of Mulliken charges =  -0.00000   1.00000

 Dipole moment (field-independent basis, Debye):
    X=              0.4363    Y=             -0.2702    Z=             -1.7005  Tot=              1.7763
 Quadrupole moment (field-independent basis, Debye-Ang):
   XX=            -45.8139   YY=            -41.7189   ZZ=            -47.0966
   XY=              0.7576   XZ=              3.1737   YZ=             -0.5219

  Exact polarizability:     103.297      -3.425      66.359      -3.723       0.514      54.331
 Approx polarizability:      82.499      -1.566      71.425      -5.501       1.525      64.961

 ******    1 imaginary frequencies (negative Signs) ******

                      1                      2                      3
                      A                      A                      A
 Frequencies --    -68.8664                60.5176                89.4610
 Red. masses --      3.7528                 3.6057                12.7574
 Frc consts  --      0.0105                 0.0078                 0.0602
 IR Inten    --      9.6604                 1.1241                13.9476

                      4                      5                      6
                      A                      A                      A
 Frequencies --    152.5621               165.2055               262.8097
 Red. masses --      1.0329                 1.1319                 2.2548
 Frc consts  --      0.0142                 0.0182                 0.0918
 IR Inten    --      0.0921                 0.5690                 0.2095

                      7                      8                      9
                      A                      A                      A
 Frequencies --    340.3980               445.4657               511.1805
 Red. masses --      2.5420                 3.0153                 2.5405
 Frc consts  --      0.1735                 0.3525                 0.3911
 IR Inten    --      6.7497                10.6431                 2.1009

                     10                     11                     12
                      A                      A                      A
 Frequencies --    722.0731               777.4860               907.5422
 Red. masses --      3.6705                 2.8596                 2.7263
 Frc consts  --      1.1276                 1.0185                 1.3230
 IR Inten    --      9.1781                19.2825                24.0475

                     13                     14                     15
                      A                      A                      A
 Frequencies --    960.2521              1013.6921              1043.8586
 Red. masses --      1.1664                 1.7411                 1.4176
 Frc consts  --      0.6337                 1.0541                 0.9101
 IR Inten    --      3.5146                23.9177                 1.2102

                     16                     17                     18
                      A                      A                      A
 Frequencies --   1133.5946              1141.8663              1180.6477
 Red. masses --      2.1304                 1.7994                 1.6185
 Frc consts  --      1.6130                 1.3823                 1.3292
 IR Inten    --     17.4751                 2.4850                 3.4961

                     19                     20                     21
                      A                      A                      A
 Frequencies --   1195.8508              1296.3619              1386.6611
 Red. masses --      1.4951                 1.2913                 1.2331
 Frc consts  --      1.2597                 1.2786                 1.3970
 IR Inten    --      3.8294                 4.7289                 7.0815

                     22                     23                     24
                      A                      A                      A
 Frequencies --   1421.7473              1426.6023              1468.5250
 Red. masses --      1.3533                 1.2848                 1.7806
 Frc consts  --      1.6117                 1.5406                 2.2625
 IR Inten    --     16.9617                 6.8699                 7.0083

                     25                     26                     27
                      A                      A                      A
 Frequencies --   1489.1340              1500.9016              1510.6508
 Red. masses --      1.0422                 1.0435                 1.1434
 Frc consts  --      1.3617                 1.3850                 1.5374
 IR Inten    --      4.8165                 0.6477                11.5042

                     28                     29                     30
                      A                      A                      A
 Frequencies --   1527.9610              2948.6198              3059.9524
 Red. masses --      1.2571                 1.0808                 1.0368
 Frc consts  --      1.7292                 5.5366                 5.7199
 IR Inten    --     11.0280               380.7787                18.1317

                     31                     32                     33
                      A                      A                      A
 Frequencies --   3063.9500              3122.9126              3127.7613
 Red. masses --      1.0372                 1.1007                 1.0998
 Frc consts  --      5.7369                 6.3246                 6.3389
 IR Inten    --     11.3123                13.5160                16.4834

                     34                     35                     36
                      A                      A                      A
 Frequencies --   3128.4273              3153.7665              3165.6458
 Red. masses --      1.0906                 1.1009                 1.0985
 Frc consts  --      6.2889                 6.4513                 6.4858
 IR Inten    --     14.2573                16.0084                24.3222

 - Thermochemistry -
 -------------------
 Temperature   298.150 Kelvin.  Pressure   1.00000 Atm.
 Atom     1 has atomic number  6 and mass  12.00000

 Molecular mass:   107.02637 amu.
 Principal axes and moments of inertia in atomic units:
                           1         2         3
     Eigenvalues --   501.634641270.051841433.09064
           X            0.99924   0.02336   0.03107
           Y           -0.02266   0.99948  -0.02294
           Z           -0.03158   0.02222   0.99925
 This molecule is an asymmetric top.
 Rotational symmetry number  1.
 Warning -- assumption of classical behavior for rotation
           may cause significant error
 Rotational temperatures (Kelvin)      0.17266     0.06820     0.06044
 Rotational constants (GHZ):           3.59772     1.42100     1.25933
    1 imaginary frequencies ignored.
 Zero-point vibrational energy     298492.5 (Joules/Mol)
                                   71.34141 (Kcal/Mol)
 Warning -- explicit consideration of   8 degrees of freedom as
           vibrations may cause significant error
 Vibrational temperatures:     87.07   128.71   219.50   237.69   378.12
          (Kelvin)            489.76   640.93   735.47  1038.90  1118.63
                             1305.75  1381.59  1458.48  1501.88  1630.99
                             1642.89  1698.69  1720.56  1865.18  1995.10
                             2045.58  2052.56  2112.88  2142.53  2159.46
                             2173.49  2198.40  4242.41  4402.59  4408.34
                             4493.17  4500.15  4501.11  4537.57  4554.66

 Zero-point correction=                           0.113690 (Hartree/Particle)
 Thermal correction to Energy=                    0.121157
 Thermal correction to Enthalpy=                  0.122101
 Thermal correction to Gibbs Free Energy=         0.080105
 Sum of electronic and zero-point Energies=           -692.238127
 Sum of electronic and thermal Energies=              -692.230660
 Sum of electronic and thermal Enthalpies=            -692.229716
 Sum of electronic and thermal Free Energies=         -692.271711

                     E (Thermal)             CV                S
                      KCal/Mol        Cal/Mol-Kelvin    Cal/Mol-Kelvin
 Total                   76.027             24.448             88.388
 Electronic               0.000              0.000              1.377
 Translational            0.889              2.981             39.920
 Rotational               0.889              2.981             28.303
 Vibrational             74.250             18.486             18.787
 Vibration     1          0.597              1.973              4.440
 Vibration     2          0.602              1.957              3.672
 Vibration     3          0.619              1.900              2.640
 Vibration     4          0.624              1.885              2.489
 Vibration     5          0.670              1.741              1.643
 Vibration     6          0.720              1.595              1.210
 Vibration     7          0.805              1.371              0.810
 Vibration     8          0.866              1.225              0.631

 Normal termination of Gaussian 16 at Thu Oct 10 23:33:52 2024.
