 Gaussian 16, Revision C.01,
 Gaussian 16:  ES64L-G16RevC.01  3-Jul-2019

 ----------------------------------------------------------------------
 #P b2plypd3/cc-pvtz # SCF=(xqc) # POpt=(CALCFC,TS,NOEIGEN,MAXCYCLES=60
 ) # int=ultrafine
 ----------------------------------------------------------------------

 --------
 comment:
 --------
 Symbolic Z-matrix:
 Charge =  0 Multiplicity = 2

 SCF Done:  E(UB2PLYPD3) =  -691.992471319     A.U. after   25 cycles
 E2(B2PLYPD3) =    -0.3595736659D+00 E(B2PLYPD3) =    -0.69235204498502D+03
 E2(B2PLYPD3) =    -0.3595736659D+00 E(B2PLYPD3) =    -0.69235204498502D+03

  Exact polarizability:     104.965       1.976      66.630      -3.244      -0.089      54.372
 Approx polarizability:      89.512       1.129      72.441      -5.792      -0.718      64.483

 SCF Done:  E(UB2PLYPD3) =  -691.993249592     A.U. after   22 cycles
 E2(B2PLYPD3) =    -0.3583941302D+00 E(B2PLYPD3) =    -0.69235164372196D+03
 SCF Done:  E(UB2PLYPD3) =  -691.993707062     A.U. after   21 cycles
 E2(B2PLYPD3) =    -0.3580655004D+00 E(B2PLYPD3) =    -0.69235177256268D+03
 SCF Done:  E(UB2PLYPD3) =  -691.993879320     A.U. after   21 cycles
 E2(B2PLYPD3) =    -0.3579177071D+00 E(B2PLYPD3) =    -0.69235179702704D+03
 SCF Done:  E(UB2PLYPD3) =  -691.994156926     A.U. after   16 cycles
 E2(B2PLYPD3) =    -0.3576541622D+00 E(B2PLYPD3) =    -0.69235181108867D+03
 SCF Done:  E(UB2PLYPD3) =  -691.994164105     A.U. after   15 cycles
 E2(B2PLYPD3) =    -0.3576517756D+00 E(B2PLYPD3) =    -0.69235181588054D+03
 SCF Done:  E(UB2PLYPD3) =  -691.994191412     A.U. after   14 cycles
 E2(B2PLYPD3) =    -0.3576252111D+00 E(B2PLYPD3) =    -0.69235181662285D+03
 SCF Done:  E(UB2PLYPD3) =  -691.994203072     A.U. after   13 cycles
 E2(B2PLYPD3) =    -0.3576138170D+00 E(B2PLYPD3) =    -0.69235181688905D+03
 Optimization completed.
    -- Stationary point found.

                         Standard orientation:
 ---------------------------------------------------------------------
 Center     Atomic      Atomic             Coordinates (Angstroms)
 Number     Number       Type             X           Y           Z
 ---------------------------------------------------------------------
      1          6           0        0.833168   -0.744575   -0.299303
      2          6           0        1.749092   -1.304894    0.746766
      3          6           0        0.381358    0.652619   -0.336261
      4          1           0        0.185796   -1.474558   -0.774485
      5          8           0        1.392370    0.194447   -1.237915
      6          6           0        0.743926    1.703651    0.671490
      7          1           0       -0.564339    0.852016   -0.852117
      8          1           0        1.164271   -1.759912    1.546252
      9          1           0        2.382601   -2.076591    0.311537
     10          1           0        2.391933   -0.540684    1.172946
     11          1           0        1.688369    1.481977    1.159224
     12          1           0       -0.037761    1.773781    1.427223
     13          1           0        0.831602    2.672749    0.182576
     14         17           0       -2.436864   -0.254421    0.060824
 ---------------------------------------------------------------------

 The electronic state is 2-A.
 Alpha  occ. eigenvalues -- -102.97305 -19.73852 -10.67957 -10.67583 -10.61601
 Alpha  occ. eigenvalues --  -10.61498  -9.95935  -7.61302  -7.59044  -7.59041
 Alpha  occ. eigenvalues --   -1.21600  -0.96272  -0.87174  -0.85880  -0.73938
 Alpha  occ. eigenvalues --   -0.66772  -0.60293  -0.53089  -0.51340  -0.49964
 Alpha  occ. eigenvalues --   -0.47976  -0.46953  -0.46150  -0.43214  -0.42217
 Alpha  occ. eigenvalues --   -0.41193  -0.40608  -0.35781  -0.34446
 Alpha virt. eigenvalues --    0.07958   0.10608   0.10994   0.14146   0.14418
 Alpha virt. eigenvalues --    0.15065   0.15441   0.17833   0.19349   0.21443
 Alpha virt. eigenvalues --    0.21730   0.25327   0.27575   0.28947   0.31145

  Beta  occ. eigenvalues -- -102.96467 -19.73720 -10.67854 -10.67574 -10.61588
  Beta  occ. eigenvalues --  -10.61497  -9.95117  -7.58598  -7.58595  -7.58065
  Beta  occ. eigenvalues --   -1.21322  -0.88762  -0.86909  -0.85794  -0.73503
  Beta  occ. eigenvalues --   -0.66532  -0.59954  -0.52830  -0.50948  -0.49800
  Beta  occ. eigenvalues --   -0.47188  -0.46872  -0.43107  -0.42029  -0.39504
  Beta  occ. eigenvalues --   -0.39298  -0.35591  -0.34220
  Beta virt. eigenvalues --   -0.15342   0.08017   0.10705   0.11075   0.14205
  Beta virt. eigenvalues --    0.14496   0.15103   0.15535   0.17967   0.19738
  Beta virt. eigenvalues --    0.21504   0.21769   0.25387   0.27608   0.29360

 Mulliken charges and spin densities:
               1          2
     1  C    0.063775  -0.000343
     2  C   -0.286508   0.001146
     3  C    0.029145   0.020440
     4  H    0.120240  -0.001195
     5  O   -0.352804   0.034235
     6  C   -0.279079   0.006902
     7  H    0.126464  -0.004163
     8  H    0.097569  -0.000369
     9  H    0.109798  -0.000079
    10  H    0.101876  -0.000030
    11  H    0.101187   0.000956
    12  H    0.099435  -0.000974
    13  H    0.110315  -0.000369
    14  Cl  -0.041412   0.943845
 Sum of Mulliken charges =  -0.00000   1.00000

 Dipole moment (field-independent basis, Debye):
    X=             -0.4363    Y=             -0.2702    Z=              1.7005  Tot=              1.7763
 Quadrupole moment (field-independent basis, Debye-Ang):
   XX=            -45.8140   YY=            -41.7189   ZZ=            -47.0965
   XY=             -0.7576   XZ=              3.1737   YZ=              0.5219

 Normal termination of Gaussian 16 at Tue Oct  8 17:12:21 2024.
